
     Program PWSCF v.5.2.0 starts on 22Dec2015 at 14:31:21 

     This program is part of the open-source Quantum ESPRESSO suite
     for quantum simulation of materials; please cite
         "P. Giannozzi et al., J. Phys.:Condens. Matter 21 395502 (2009);
          URL http://www.quantum-espresso.org", 
     in publications or presentations arising from this work. More details at
     http://www.quantum-espresso.org/quote

     Serial version
     Waiting for input...
     Reading input from standard input

     Current dimensions of program PWSCF are:
     Max number of different atomic species (ntypx) = 10
     Max number of k-points (npk) =  40000
     Max angular momentum in pseudopotentials (lmaxx) =  3

     IMPORTANT: XC functional enforced from input :
     Exchange-correlation      = PBESOL ( 1  4 10  8 0 0)
     Any further DFT definition will be discarded
     Please, verify this is what you really want


     G-vector sticks info
     --------------------
     sticks:   dense  smooth     PW     G-vecs:    dense   smooth      PW
     Sum         609     609    193                11459    11459    2007



     bravais-lattice index     =            0
     lattice parameter (alat)  =       6.6140  a.u.
     unit-cell volume          =     289.3294 (a.u.)^3
     number of atoms/cell      =            5
     number of atomic types    =            3
     number of electrons       =        40.00
     number of Kohn-Sham states=           25
     kinetic-energy cutoff     =      44.0000  Ry
     charge density cutoff     =     176.0000  Ry
     convergence threshold     =      1.0E-07
     mixing beta               =       0.8000
     number of iterations used =            8  plain     mixing
     Exchange-correlation      = PBESOL ( 1  4 10  8 0 0)
     nstep                     =          500


     celldm(1)=   6.614000  celldm(2)=   0.000000  celldm(3)=   0.000000
     celldm(4)=   0.000000  celldm(5)=   0.000000  celldm(6)=   0.000000

     crystal axes: (cart. coord. in units of alat)
               a(1) = (   1.000000   0.000000   0.000000 )  
               a(2) = (   0.000000   1.000000   0.000000 )  
               a(3) = (   0.000000   0.000000   1.000000 )  

     reciprocal axes: (cart. coord. in units 2 pi/alat)
               b(1) = (  1.000000  0.000000  0.000000 )  
               b(2) = (  0.000000  1.000000  0.000000 )  
               b(3) = (  0.000000  0.000000  1.000000 )  


     PseudoPot. # 1 for Sr read from file:
     ./pseudo/Sr.pbesol-spn-rrkjus_psl.1.0.0.UPF
     MD5 check sum: 75715fe6d3c8d996864f4ed512eac87f
     Pseudo is Ultrasoft + core correction, Zval = 10.0
     Generated using "atomic" code by A. Dal Corso  v.5.1
     Using radial grid of 1221 points,  6 beta functions with: 
                l(1) =   0
                l(2) =   0
                l(3) =   1
                l(4) =   1
                l(5) =   2
                l(6) =   2
     Q(r) pseudized with 0 coefficients 


     PseudoPot. # 2 for Ti read from file:
     ./pseudo/ti_pbesol_v1.4.uspp.F.UPF
     MD5 check sum: ebdc10ccce51265d8c030443845e563a
     Pseudo is Ultrasoft + core correction, Zval = 12.0
     Generated by new atomic code, or converted to UPF format
     Using radial grid of  851 points,  6 beta functions with: 
                l(1) =   0
                l(2) =   0
                l(3) =   1
                l(4) =   1
                l(5) =   2
                l(6) =   2
     Q(r) pseudized with  6 coefficients,  rinner =    1.000   1.000   1.000
                                                       1.000   1.000

     PseudoPot. # 3 for O  read from file:
     ./pseudo/o_pbesol_v1.2.uspp.F.UPF
     MD5 check sum: 501638753501ef6325af9037351f7734
     Pseudo is Ultrasoft + core correction, Zval =  6.0
     Generated by new atomic code, or converted to UPF format
     Using radial grid of  737 points,  5 beta functions with: 
                l(1) =   0
                l(2) =   0
                l(3) =   1
                l(4) =   1
                l(5) =   2
     Q(r) pseudized with  8 coefficients,  rinner =    0.900   0.900   0.900
                                                       0.900   0.900

     atomic species   valence    mass     pseudopotential
        Sr            10.00    87.62000     Sr( 1.00)
        Ti            12.00    47.88000     Ti( 1.00)
        O              6.00    15.99940     O ( 1.00)

     48 Sym. Ops., with inversion, found



   Cartesian axes

     site n.     atom                  positions (alat units)
         1           Sr  tau(   1) = (   0.0000000   0.0000000   0.0000000  )
         2           Ti  tau(   2) = (   0.5000000   0.5000000   0.5000000  )
         3           O   tau(   3) = (   0.5000000   0.5000000   0.0000000  )
         4           O   tau(   4) = (   0.5000000   0.0000000   0.5000000  )
         5           O   tau(   5) = (   0.0000000   0.5000000   0.5000000  )

     number of k points=    20
                       cart. coord. in units 2pi/alat
        k(    1) = (   0.0000000   0.0000000   0.0000000), wk =   0.0092593
        k(    2) = (   0.0000000   0.0000000   0.1666667), wk =   0.0555556
        k(    3) = (   0.0000000   0.0000000   0.3333333), wk =   0.0555556
        k(    4) = (   0.0000000   0.0000000  -0.5000000), wk =   0.0277778
        k(    5) = (   0.0000000   0.1666667   0.1666667), wk =   0.1111111
        k(    6) = (   0.0000000   0.1666667   0.3333333), wk =   0.2222222
        k(    7) = (   0.0000000   0.1666667  -0.5000000), wk =   0.1111111
        k(    8) = (   0.0000000   0.3333333   0.3333333), wk =   0.1111111
        k(    9) = (   0.0000000   0.3333333  -0.5000000), wk =   0.1111111
        k(   10) = (   0.0000000  -0.5000000  -0.5000000), wk =   0.0277778
        k(   11) = (   0.1666667   0.1666667   0.1666667), wk =   0.0740741
        k(   12) = (   0.1666667   0.1666667   0.3333333), wk =   0.2222222
        k(   13) = (   0.1666667   0.1666667  -0.5000000), wk =   0.1111111
        k(   14) = (   0.1666667   0.3333333   0.3333333), wk =   0.2222222
        k(   15) = (   0.1666667   0.3333333  -0.5000000), wk =   0.2222222
        k(   16) = (   0.1666667  -0.5000000  -0.5000000), wk =   0.0555556
        k(   17) = (   0.3333333   0.3333333   0.3333333), wk =   0.0740741
        k(   18) = (   0.3333333   0.3333333  -0.5000000), wk =   0.1111111
        k(   19) = (   0.3333333  -0.5000000  -0.5000000), wk =   0.0555556
        k(   20) = (  -0.5000000  -0.5000000  -0.5000000), wk =   0.0092593

     Dense  grid:    11459 G-vectors     FFT dimensions: (  27,  27,  27)

     Largest allocated arrays     est. size (Mb)     dimensions
        Kohn-Sham Wavefunctions         0.56 Mb     (    1472,   25)
        NL pseudopotentials             1.68 Mb     (    1472,   75)
        Each V/rho on FFT grid          0.30 Mb     (   19683)
        Each G-vector array             0.09 Mb     (   11459)
        G-vector shells                 0.09 Mb     (   11459)
     Largest temporary arrays     est. size (Mb)     dimensions
        Auxiliary wavefunctions         2.25 Mb     (    1472,  100)
        Each subspace H/S matrix        0.15 Mb     (     100,  100)
        Each <psi_i|beta_j> matrix      0.03 Mb     (      75,   25)
        Arrays for rho mixing           2.40 Mb     (   19683,    8)

     Check: negative/imaginary core charge=   -0.000016    0.000000

     Initial potential from superposition of free atoms

     starting charge   38.99288, renormalised to   40.00000
     Starting wfc are   30 randomized atomic wfcs

     total cpu time spent up to now is        5.8 secs

     per-process dynamical memory:    24.4 Mb

     Self-consistent Calculation

     iteration #  1     ecut=    44.00 Ry     beta=0.80
     Davidson diagonalization with overlap
     ethr =  1.00E-02,  avg # of iterations =  2.5

     total cpu time spent up to now is        8.7 secs

     total energy              =    -285.85896159 Ry
     Harris-Foulkes estimate   =    -286.52423903 Ry
     estimated scf accuracy    <       0.81244906 Ry

     iteration #  2     ecut=    44.00 Ry     beta=0.80
     Davidson diagonalization with overlap
     ethr =  2.03E-03,  avg # of iterations =  4.5

     total cpu time spent up to now is       12.6 secs

     total energy              =    -285.56486201 Ry
     Harris-Foulkes estimate   =    -286.83953648 Ry
     estimated scf accuracy    <       3.12144069 Ry

     iteration #  3     ecut=    44.00 Ry     beta=0.80
     Davidson diagonalization with overlap
     ethr =  2.03E-03,  avg # of iterations =  3.8

     total cpu time spent up to now is       16.1 secs

     total energy              =    -286.26104280 Ry
     Harris-Foulkes estimate   =    -286.32850883 Ry
     estimated scf accuracy    <       0.15523672 Ry

     iteration #  4     ecut=    44.00 Ry     beta=0.80
     Davidson diagonalization with overlap
     ethr =  3.88E-04,  avg # of iterations =  2.5

     total cpu time spent up to now is       18.8 secs

     total energy              =    -286.27536873 Ry
     Harris-Foulkes estimate   =    -286.28200357 Ry
     estimated scf accuracy    <       0.01532824 Ry

     iteration #  5     ecut=    44.00 Ry     beta=0.80
     Davidson diagonalization with overlap
     ethr =  3.83E-05,  avg # of iterations =  3.9

     total cpu time spent up to now is       22.0 secs

     total energy              =    -286.27859885 Ry
     Harris-Foulkes estimate   =    -286.27861174 Ry
     estimated scf accuracy    <       0.00004676 Ry

     iteration #  6     ecut=    44.00 Ry     beta=0.80
     Davidson diagonalization with overlap
     ethr =  1.17E-07,  avg # of iterations =  4.3

     total cpu time spent up to now is       25.8 secs

     total energy              =    -286.27862044 Ry
     Harris-Foulkes estimate   =    -286.27862196 Ry
     estimated scf accuracy    <       0.00000462 Ry

     iteration #  7     ecut=    44.00 Ry     beta=0.80
     Davidson diagonalization with overlap
     ethr =  1.16E-08,  avg # of iterations =  2.0

     total cpu time spent up to now is       28.5 secs

     total energy              =    -286.27862080 Ry
     Harris-Foulkes estimate   =    -286.27862099 Ry
     estimated scf accuracy    <       0.00000037 Ry

     iteration #  8     ecut=    44.00 Ry     beta=0.80
     Davidson diagonalization with overlap
     ethr =  9.23E-10,  avg # of iterations =  3.0

     total cpu time spent up to now is       31.6 secs

     End of self-consistent calculation

          k = 0.0000 0.0000 0.0000 (  1365 PWs)   bands (ev):

   -39.4695 -16.5086 -16.1854 -16.1854 -16.1854  -3.0630  -2.1041  -2.1041
     1.3381   1.3381   1.3381  12.6430  12.6430  12.6430  13.4688  13.4688
    13.4688  15.4733  15.4733  15.4733  17.6368  17.6368  17.6368  20.6450
    20.6450

          k = 0.0000 0.0000 0.1667 (  1414 PWs)   bands (ev):

   -39.4677 -16.6227 -16.1807 -16.1807 -16.1160  -3.2232  -2.0771  -1.8984
     1.3737   1.3737   1.7314  12.0926  12.4603  12.4603  12.9629  12.9629
    13.0407  14.3130  15.2812  15.2812  17.7310  18.6423  18.6423  21.3587
    21.3933

          k = 0.0000 0.0000 0.3333 (  1426 PWs)   bands (ev):

   -39.4642 -16.8049 -16.1713 -16.1713 -16.0166  -3.7000  -2.0222  -1.1094
     1.4466   1.4466   2.4047  10.7454  12.0067  12.0067  12.3166  12.3166
    12.3349  12.7776  15.0951  15.0951  17.9351  20.3122  20.3122  22.5324
    23.1170

          k = 0.0000 0.0000-0.5000 (  1422 PWs)   bands (ev):

   -39.4624 -16.8862 -16.1666 -16.1666 -15.9737  -3.9328  -1.9943  -0.6118
     1.4840   1.4840   2.7088   9.9351  11.7461  11.7461  12.0312  12.1040
    12.1040  12.2407  15.0357  15.0357  18.0466  21.1204  21.1204  22.6940
    23.9024

          k = 0.0000 0.1667 0.1667 (  1418 PWs)   bands (ev):

   -39.4660 -16.6494 -16.2638 -16.1761 -16.0522  -3.1917  -1.9876  -1.9081
     1.4153   1.5207   1.9018  11.4973  12.1067  12.2756  12.3278  12.5476
    13.5043  14.0897  14.5218  15.0253  18.5725  18.8329  19.0481  22.0715
    22.0865

          k = 0.0000 0.1667 0.3333 (  1414 PWs)   bands (ev):

   -39.4625 -16.7543 -16.2753 -16.1670 -16.0219  -3.4511  -1.9037  -1.3389
     1.5011   1.6577   2.3224  10.5183  11.0565  11.8009  11.8123  11.9839
    12.8772  13.7285  14.2432  14.7909  18.8314  20.2789  20.3445  23.2288
    23.7490

          k = 0.0000 0.1667-0.5000 (  1430 PWs)   bands (ev):

   -39.4608 -16.8194 -16.2510 -16.1624 -16.0212  -3.6332  -1.8514  -0.9383
     1.5452   1.7315   2.5231   9.8987  10.4457  11.5319  11.7823  11.7884
    12.4703  13.7991  14.0281  14.7236  18.9179  21.0454  21.1268  23.4464
    24.3100

          k = 0.0000 0.3333 0.3333 (  1424 PWs)   bands (ev):

   -39.4591 -16.6574 -16.4166 -16.1583 -16.0884  -3.0537  -1.7744  -1.4637
     1.6142   1.9845   2.2437   9.5910  10.7194  10.8048  11.3723  11.4154
    12.9906  13.5219  14.4933  14.7166  20.2821  20.4997  20.7618  23.9967
    24.5256

          k = 0.0000 0.3333-0.5000 (  1430 PWs)   bands (ev):

   -39.4574 -16.6462 -16.4131 -16.1555 -16.1539  -2.9622  -1.6431  -1.4582
     1.6732   2.1228   2.2895   9.1850   9.8580  10.7562  11.1207  11.2024
    13.2135  13.4583  14.4089  14.8770  20.4224  21.1450  21.2751  24.1639
    25.1206

          k = 0.0000-0.5000-0.5000 (  1452 PWs)   bands (ev):

   -39.4557 -16.4911 -16.4911 -16.2912 -16.1497  -2.5157  -1.6805  -1.6805
     1.7402   2.2968   2.2968   8.7089   9.7625   9.9559  10.9266  10.9266
    13.5804  13.5804  14.3185  15.1976  21.1554  21.1554  21.5891  24.3321
    25.0535

          k = 0.1667 0.1667 0.1667 (  1436 PWs)   bands (ev):

   -39.4643 -16.6479 -16.2586 -16.2586 -16.0220  -3.0572  -1.9204  -1.9204
     1.4455   1.4455   2.1466  10.9185  11.8738  11.8738  12.2776  12.2776
    13.8281  13.8877  14.3648  14.3648  19.1594  19.1841  19.1841  22.6777
    22.6777

          k = 0.1667 0.1667 0.3333 (  1424 PWs)   bands (ev):

   -39.4608 -16.7061 -16.2865 -16.2480 -16.0310  -3.1729  -1.7737  -1.4460
     1.2773   1.7472   2.3545  10.2152  10.9740  11.2896  11.5172  12.0759
    13.4246  13.8513  14.0754  14.0909  19.4058  20.3331  20.4683  23.8515
    24.0914

          k = 0.1667 0.1667-0.5000 (  1434 PWs)   bands (ev):

   -39.4591 -16.7599 -16.2492 -16.2427 -16.0590  -3.3211  -1.6926  -1.0566
     1.1828   2.0659   2.2881   9.8703  10.1668  11.1273  11.3483  11.9472
    13.5905  13.7011  13.7825  13.9862  19.5129  21.0907  21.1797  24.3814
    24.6504

          k = 0.1667 0.3333 0.3333 (  1435 PWs)   bands (ev):

   -39.4575 -16.6140 -16.4102 -16.2502 -16.0969  -2.7158  -1.6378  -1.3999
     1.2219   1.6918   2.3005   9.6914  10.7064  10.8183  11.1880  11.2998
    12.9888  13.8206  13.9879  14.6807  20.5524  20.6680  20.9509  24.6703
    25.1445

          k = 0.1667 0.3333-0.5000 (  1436 PWs)   bands (ev):

   -39.4558 -16.6089 -16.4068 -16.2359 -16.1664  -2.6146  -1.4480  -1.3549
     1.1607   1.9435   2.0777   9.5259   9.8531  10.7650  11.0336  11.1501
    13.1025  13.8426  13.8572  14.8746  20.7239  21.2849  21.4448  25.1172
    25.3297

          k = 0.1667-0.5000-0.5000 (  1428 PWs)   bands (ev):

   -39.4541 -16.4841 -16.4841 -16.2694 -16.2309  -2.1011  -1.5191  -1.5191
     1.3425   1.8972   1.8972   9.3120   9.7704   9.9790  10.9572  10.9572
    13.1110  13.9810  13.9810  15.2363  21.3789  21.3789  21.7637  24.6265
    25.5572

          k = 0.3333 0.3333 0.3333 (  1436 PWs)   bands (ev):

   -39.4541 -16.5222 -16.3973 -16.3973 -16.1489  -2.0671  -1.2826  -1.2826
     1.0415   1.0415   1.9407   9.9722  10.6914  10.6914  10.9814  10.9814
    11.4595  14.4492  14.4492  14.8241  21.2262  21.2262  21.3503  24.9022
    24.9024

          k = 0.3333 0.3333-0.5000 (  1426 PWs)   bands (ev):

   -39.4525 -16.5233 -16.3969 -16.3908 -16.1987  -1.8418  -1.1465  -1.0178
     0.6368   1.2780   1.5379   9.8629  10.1626  10.6935  10.8924  10.9098
    11.3611  14.4893  14.7505  14.9903  21.4437  21.7296  21.7712  24.6463
    24.8146

          k = 0.3333-0.5000-0.5000 (  1428 PWs)   bands (ev):

   -39.4508 -16.4699 -16.4699 -16.3874 -16.2252  -1.1706  -1.0648  -1.0648
     0.6764   1.0156   1.0156   9.7862   9.9995  10.4071  10.9463  10.9463
    11.0393  14.8684  14.8684  15.3154  21.9198  21.9198  22.1301  23.9754
    24.5291

          k =-0.5000-0.5000-0.5000 (  1472 PWs)   bands (ev):

   -39.4492 -16.4629 -16.4629 -16.4629 -16.2029  -0.6303  -0.6303  -0.6303
     0.3871   0.3871   0.3871   9.7940   9.7940  10.2643  10.9207  10.9207
    10.9207  15.3559  15.3559  15.3559  22.3193  22.3193  22.3193  23.6878
    23.6878

     highest occupied, lowest unoccupied level (ev):    15.4733   17.6368

!    total energy              =    -286.27862089 Ry
     Harris-Foulkes estimate   =    -286.27862092 Ry
     estimated scf accuracy    <       0.00000003 Ry

     The total energy is the sum of the following terms:

     one-electron contribution =     -41.82683006 Ry
     hartree contribution      =      51.93578581 Ry
     xc contribution           =     -59.28922410 Ry
     ewald contribution        =    -237.09835254 Ry

     convergence has been achieved in   8 iterations

     Forces acting on atoms (Ry/au):

     atom    1 type  1   force =     0.00000000    0.00000000    0.00000000
     atom    2 type  2   force =     0.00000000    0.00000000    0.00000000
     atom    3 type  3   force =     0.00000000    0.00000000    0.00000000
     atom    4 type  3   force =     0.00000000    0.00000000    0.00000000
     atom    5 type  3   force =     0.00000000    0.00000000    0.00000000

     Total force =     0.000000     Total SCF correction =     0.000000


     entering subroutine stress ...

          total   stress  (Ry/bohr**3)                   (kbar)     P= 1191.44
   0.00809923   0.00000000   0.00000000       1191.44      0.00      0.00
   0.00000000   0.00809923   0.00000000          0.00   1191.44      0.00
   0.00000000   0.00000000   0.00809923          0.00      0.00   1191.44


     BFGS Geometry Optimization

     number of scf cycles    =   1
     number of bfgs steps    =   0

     enthalpy new            =    -286.2786208918 Ry

     new trust radius        =       0.5000000000 bohr
     new conv_thr            =       0.0000001000 Ry

     new unit-cell volume =    436.57064 a.u.^3 (    64.69309 Ang^3 )

CELL_PARAMETERS (alat=  6.61400000)
   1.146975088   0.000000000   0.000000000
   0.000000000   1.146975088   0.000000000
   0.000000000   0.000000000   1.146975088

ATOMIC_POSITIONS (crystal)
Sr       0.000000000   0.000000000   0.000000000
Ti       0.500000000   0.500000000   0.500000000
O        0.500000000   0.500000000   0.000000000
O        0.500000000   0.000000000   0.500000000
O        0.000000000   0.500000000   0.500000000



     Writing output data file aiida.save
     NEW-OLD atomic charge density approx. for the potential

     Check: negative/imaginary core charge=   -0.000054    0.000000
     extrapolated charge   53.15104, renormalised to   40.00000

     total cpu time spent up to now is       47.2 secs

     per-process dynamical memory:    26.3 Mb

     Self-consistent Calculation

     iteration #  1     ecut=    44.00 Ry     beta=0.80
     Davidson diagonalization with overlap
     ethr =  1.00E-06,  avg # of iterations = 11.3

     total cpu time spent up to now is       56.6 secs

     total energy              =    -252.34116685 Ry
     Harris-Foulkes estimate   =    -269.16736766 Ry
     estimated scf accuracy    <      26.60491199 Ry

     iteration #  2     ecut=    44.00 Ry     beta=0.80
     Davidson diagonalization with overlap
     ethr =  1.00E-02,  avg # of iterations =  5.9

     total cpu time spent up to now is       62.7 secs

     total energy              =    -280.50760400 Ry
     Harris-Foulkes estimate   =    -341.47568863 Ry
     estimated scf accuracy    <     167.12477645 Ry

     iteration #  3     ecut=    44.00 Ry     beta=0.80
     Davidson diagonalization with overlap
     ethr =  1.00E-02,  avg # of iterations =  5.7

     total cpu time spent up to now is       67.7 secs

     total energy              =    -288.92084221 Ry
     Harris-Foulkes estimate   =    -294.96981270 Ry
     estimated scf accuracy    <      22.28888625 Ry

     iteration #  4     ecut=    44.00 Ry     beta=0.80
     Davidson diagonalization with overlap
     ethr =  1.00E-02,  avg # of iterations =  2.0

     total cpu time spent up to now is       70.7 secs

     total energy              =    -287.86207625 Ry
     Harris-Foulkes estimate   =    -289.77591940 Ry
     estimated scf accuracy    <       8.05410177 Ry

     iteration #  5     ecut=    44.00 Ry     beta=0.80
     Davidson diagonalization with overlap
     ethr =  1.00E-02,  avg # of iterations =  1.1

     total cpu time spent up to now is       72.9 secs

     total energy              =    -288.43239419 Ry
     Harris-Foulkes estimate   =    -288.23345550 Ry
     estimated scf accuracy    <       5.16184854 Ry

     iteration #  6     ecut=    44.00 Ry     beta=0.80
     Davidson diagonalization with overlap
     ethr =  1.00E-02,  avg # of iterations =  1.0

     total cpu time spent up to now is       75.1 secs

     total energy              =    -286.53438708 Ry
     Harris-Foulkes estimate   =    -288.46923876 Ry
     estimated scf accuracy    <       7.91224298 Ry

     iteration #  7     ecut=    44.00 Ry     beta=0.80
     Davidson diagonalization with overlap
     ethr =  1.00E-02,  avg # of iterations =  1.2

     total cpu time spent up to now is       77.6 secs

     total energy              =    -286.84650000 Ry
     Harris-Foulkes estimate   =    -287.00719636 Ry
     estimated scf accuracy    <       1.24370744 Ry

     iteration #  8     ecut=    44.00 Ry     beta=0.80
     Davidson diagonalization with overlap
     ethr =  3.11E-03,  avg # of iterations =  1.0

     total cpu time spent up to now is       79.7 secs

     total energy              =    -286.86012641 Ry
     Harris-Foulkes estimate   =    -286.86136471 Ry
     estimated scf accuracy    <       0.86955698 Ry

     iteration #  9     ecut=    44.00 Ry     beta=0.80
     Davidson diagonalization with overlap
     ethr =  2.17E-03,  avg # of iterations =  1.0

     total cpu time spent up to now is       81.9 secs

     total energy              =    -286.58847949 Ry
     Harris-Foulkes estimate   =    -286.86193034 Ry
     estimated scf accuracy    <       0.84463107 Ry

     iteration # 10     ecut=    44.00 Ry     beta=0.80
     Davidson diagonalization with overlap
     ethr =  2.11E-03,  avg # of iterations =  1.1

     total cpu time spent up to now is       84.3 secs

     total energy              =    -286.45959449 Ry
     Harris-Foulkes estimate   =    -286.62972308 Ry
     estimated scf accuracy    <       0.30565894 Ry

     iteration # 11     ecut=    44.00 Ry     beta=0.80
     Davidson diagonalization with overlap
     ethr =  7.64E-04,  avg # of iterations =  3.1

     total cpu time spent up to now is       87.6 secs

     total energy              =    -286.56073338 Ry
     Harris-Foulkes estimate   =    -286.56150671 Ry
     estimated scf accuracy    <       0.05642549 Ry

     iteration # 12     ecut=    44.00 Ry     beta=0.80
     Davidson diagonalization with overlap
     ethr =  1.41E-04,  avg # of iterations =  2.1

     total cpu time spent up to now is       90.4 secs

     total energy              =    -286.55828271 Ry
     Harris-Foulkes estimate   =    -286.56218039 Ry
     estimated scf accuracy    <       0.05770074 Ry

     iteration # 13     ecut=    44.00 Ry     beta=0.80
     Davidson diagonalization with overlap
     ethr =  1.41E-04,  avg # of iterations =  1.0

     total cpu time spent up to now is       92.7 secs

     total energy              =    -286.55556501 Ry
     Harris-Foulkes estimate   =    -286.55867909 Ry
     estimated scf accuracy    <       0.04324475 Ry

     iteration # 14     ecut=    44.00 Ry     beta=0.80
     Davidson diagonalization with overlap
     ethr =  1.08E-04,  avg # of iterations =  1.0

     total cpu time spent up to now is       94.9 secs

     total energy              =    -286.55236745 Ry
     Harris-Foulkes estimate   =    -286.55596592 Ry
     estimated scf accuracy    <       0.02845753 Ry

     iteration # 15     ecut=    44.00 Ry     beta=0.80
     Davidson diagonalization with overlap
     ethr =  7.11E-05,  avg # of iterations =  1.0

     total cpu time spent up to now is       97.2 secs

     total energy              =    -286.54452340 Ry
     Harris-Foulkes estimate   =    -286.55284543 Ry
     estimated scf accuracy    <       0.01432562 Ry

     iteration # 16     ecut=    44.00 Ry     beta=0.80
     Davidson diagonalization with overlap
     ethr =  3.58E-05,  avg # of iterations =  4.0

     total cpu time spent up to now is      100.5 secs

     total energy              =    -286.58438233 Ry
     Harris-Foulkes estimate   =    -286.58917793 Ry
     estimated scf accuracy    <       0.01204322 Ry

     iteration # 17     ecut=    44.00 Ry     beta=0.80
     Davidson diagonalization with overlap
     ethr =  3.01E-05,  avg # of iterations =  2.3

     total cpu time spent up to now is      103.1 secs

     total energy              =    -286.58624622 Ry
     Harris-Foulkes estimate   =    -286.58734876 Ry
     estimated scf accuracy    <       0.00196939 Ry

     iteration # 18     ecut=    44.00 Ry     beta=0.80
     Davidson diagonalization with overlap
     ethr =  4.92E-06,  avg # of iterations =  3.4

     total cpu time spent up to now is      106.3 secs

     total energy              =    -286.58672611 Ry
     Harris-Foulkes estimate   =    -286.58709915 Ry
     estimated scf accuracy    <       0.00094438 Ry

     iteration # 19     ecut=    44.00 Ry     beta=0.80
     Davidson diagonalization with overlap
     ethr =  2.36E-06,  avg # of iterations =  2.7

     total cpu time spent up to now is      109.0 secs

     total energy              =    -286.58692760 Ry
     Harris-Foulkes estimate   =    -286.58697342 Ry
     estimated scf accuracy    <       0.00012964 Ry

     iteration # 20     ecut=    44.00 Ry     beta=0.80
     Davidson diagonalization with overlap
     ethr =  3.24E-07,  avg # of iterations =  2.0

     total cpu time spent up to now is      111.5 secs

     total energy              =    -286.58693567 Ry
     Harris-Foulkes estimate   =    -286.58693963 Ry
     estimated scf accuracy    <       0.00002930 Ry

     iteration # 21     ecut=    44.00 Ry     beta=0.80
     Davidson diagonalization with overlap
     ethr =  7.32E-08,  avg # of iterations =  1.6

     total cpu time spent up to now is      113.8 secs

     total energy              =    -286.58693401 Ry
     Harris-Foulkes estimate   =    -286.58693669 Ry
     estimated scf accuracy    <       0.00001188 Ry

     iteration # 22     ecut=    44.00 Ry     beta=0.80
     Davidson diagonalization with overlap
     ethr =  2.97E-08,  avg # of iterations =  1.7

     total cpu time spent up to now is      116.2 secs

     total energy              =    -286.58693431 Ry
     Harris-Foulkes estimate   =    -286.58693512 Ry
     estimated scf accuracy    <       0.00000199 Ry

     iteration # 23     ecut=    44.00 Ry     beta=0.80
     Davidson diagonalization with overlap
     ethr =  4.97E-09,  avg # of iterations =  2.2

     total cpu time spent up to now is      119.0 secs

     End of self-consistent calculation

          k = 0.0000 0.0000 0.0000 (  1365 PWs)   bands (ev):

   -47.7961 -24.0681 -24.0466 -24.0466 -24.0466  -8.2381  -7.3015  -7.3015
    -6.0594  -6.0594  -6.0594   6.0152   6.0152   6.0152   7.7390   7.7390
     7.7390   8.3988   8.3988   8.3988  10.4890  10.4890  10.4890  12.6380
    12.6380

          k = 0.0000 0.0000 0.1453 (  1414 PWs)   bands (ev):

   -47.7961 -24.1023 -24.0462 -24.0462 -24.0203  -8.2523  -7.3174  -7.2936
    -6.0509  -6.0509  -5.9016   5.6962   6.0122   6.0122   7.4211   7.4211
     7.5318   7.6991   8.2627   8.2627  10.5223  11.0029  11.0029  12.6393
    13.3039

          k = 0.0000 0.0000 0.2906 (  1426 PWs)   bands (ev):

   -47.7958 -24.1407 -24.0451 -24.0451 -23.9971  -8.3509  -7.2775  -7.2005
    -6.0332  -6.0332  -5.6514   5.0367   6.0314   6.0314   6.7666   6.8718
     6.8718   7.1762   8.1140   8.1140  10.5914  11.8309  11.8309  12.6424
    14.2148

          k = 0.0000 0.0000-0.4359 (  1422 PWs)   bands (ev):

   -47.7956 -24.1567 -24.0446 -24.0446 -23.9886  -8.4178  -7.2695  -7.0961
    -6.0242  -6.0242  -5.5480   4.6923   6.0720   6.0720   6.4277   6.6077
     6.6077   7.0153   8.0580   8.0580  10.6272  12.2027  12.2027  12.6439
    14.5876

          k = 0.0000 0.1453 0.1453 (  1418 PWs)   bands (ev):

   -47.7959 -24.1093 -24.0579 -24.0456 -24.0089  -8.2231  -7.3673  -7.2774
    -6.0417  -5.9538  -5.8651   5.5289   5.8532   6.0139   6.7618   7.2037
     7.5454   7.7050   7.9960   8.0416  10.9675  11.0770  11.2639  12.9603
    13.7101

          k = 0.0000 0.1453 0.2906 (  1414 PWs)   bands (ev):

   -47.7956 -24.1320 -24.0593 -24.0446 -23.9995  -8.2449  -7.3361  -7.2313
    -6.0233  -5.9231  -5.6815   4.9938   5.6706   6.0333   6.0420   6.7489
     7.0455   7.6453   7.8076   7.8915  11.0619  11.8394  11.8966  13.0601
    14.5951

          k = 0.0000 0.1453-0.4359 (  1430 PWs)   bands (ev):

   -47.7955 -24.1448 -24.0564 -24.0441 -23.9969  -8.2872  -7.2530  -7.2226
    -6.0140  -5.9165  -5.5964   4.6740   5.5210   5.8291   6.0931   6.4991
     6.8841   7.6267   7.7293   7.7902  11.0876  12.2038  12.2394  13.0707
    14.9650

          k = 0.0000 0.2906 0.2906 (  1424 PWs)   bands (ev):

   -47.7953 -24.1160 -24.0803 -24.0436 -24.0102  -8.0350  -7.4735  -7.2279
    -6.0033  -5.7632  -5.7108   4.7845   5.1696   5.2382   6.0838   6.4781
     7.1172   7.3704   7.3867   8.3772  11.8080  11.8916  12.2140  13.3557
    15.4931

          k = 0.0000 0.2906-0.4359 (  1430 PWs)   bands (ev):

   -47.7952 -24.1149 -24.0798 -24.0431 -24.0195  -7.9567  -7.4289  -7.3048
    -5.9934  -5.7461  -5.6630   4.5954   4.7637   5.1480   6.1508   6.2927
     7.1572   7.2300   7.3217   8.4990  11.8573  12.2071  12.4521  13.4129
    15.8977

          k = 0.0000-0.4359-0.4359 (  1452 PWs)   bands (ev):

   -47.7951 -24.0915 -24.0915 -24.0427 -24.0394  -7.6180  -7.5180  -7.5180
    -5.9833  -5.6741  -5.6741   4.4420   4.4896   4.8806   6.1929   6.1929
     7.0103   7.2905   7.2905   8.7132  12.2089  12.2089  12.6311  13.4814
    16.2783

          k = 0.1453 0.1453 0.1453 (  1436 PWs)   bands (ev):

   -47.7958 -24.1103 -24.0574 -24.0574 -24.0039  -8.1708  -7.3336  -7.3336
    -5.9833  -5.9833  -5.8036   5.3630   5.8568   5.8568   6.6998   6.6998
     7.0206   7.9302   7.9302   7.9789  11.2345  11.3276  11.3276  13.7059
    13.7059

          k = 0.1453 0.1453 0.2906 (  1424 PWs)   bands (ev):

   -47.7955 -24.1239 -24.0606 -24.0563 -24.0020  -8.1380  -7.3287  -7.2604
    -6.0479  -5.8802  -5.7001   4.9479   5.5518   5.8690   6.0036   6.1745
     6.9109   7.7454   7.8295   7.9817  11.3554  11.9190  11.9347  13.6914
    14.7477

          k = 0.1453 0.1453-0.4359 (  1434 PWs)   bands (ev):

   -47.7953 -24.1345 -24.0560 -24.0558 -24.0036  -8.1578  -7.2723  -7.2204
    -6.0840  -5.8287  -5.6598   4.6606   5.4030   5.7317   5.8822   5.9754
     6.9834   7.6156   7.7844   7.9067  11.3883  12.2488  12.2753  13.6773
    15.1477

          k = 0.1453 0.2906 0.2906 (  1435 PWs)   bands (ev):

   -47.7952 -24.1090 -24.0797 -24.0564 -24.0124  -7.9223  -7.4032  -7.2161
    -6.0608  -5.8539  -5.7165   4.7811   5.2451   5.2593   5.7655   6.0450
     6.4469   7.7461   7.8315   8.3918  11.9453  12.0126  12.2552  14.1513
    15.4768

          k = 0.1453 0.2906-0.4359 (  1436 PWs)   bands (ev):

   -47.7950 -24.1092 -24.0793 -24.0548 -24.0215  -7.8323  -7.3790  -7.2319
    -6.0861  -5.7831  -5.7616   4.5939   4.8973   5.1560   5.8113   5.8532
     6.4455   7.7590   7.7810   8.5130  12.0047  12.3040  12.4923  14.1944
    15.8827

          k = 0.1453-0.4359-0.4359 (  1428 PWs)   bands (ev):

   -47.7949 -24.0908 -24.0908 -24.0543 -24.0362  -7.4867  -7.4342  -7.4342
    -6.0547  -5.7905  -5.7905   4.4446   4.6796   4.8855   5.8226   5.8226
     6.3193   7.7997   7.7997   8.7342  12.3247  12.3247  12.6743  14.2541
    16.0987

          k = 0.2906 0.2906 0.2906 (  1436 PWs)   bands (ev):

   -47.7949 -24.0949 -24.0785 -24.0785 -24.0202  -7.6769  -7.2312  -7.2312
    -6.0666  -6.0666  -5.8031   4.7290   5.2641   5.2641   5.3551   5.5784
     5.5784   8.2234   8.2234   8.5063  12.3053  12.3527  12.3527  15.4117
    15.4117

          k = 0.2906 0.2906-0.4359 (  1426 PWs)   bands (ev):

   -47.7947 -24.0968 -24.0782 -24.0780 -24.0265  -7.5285  -7.2737  -7.1165
    -6.2016  -5.9683  -5.9296   4.5443   5.1045   5.1228   5.2865   5.3978
     5.6168   8.2903   8.3948   8.6026  12.3782  12.5557  12.5891  15.3462
    15.7892

          k = 0.2906-0.4359-0.4359 (  1428 PWs)   bands (ev):

   -47.7946 -24.0896 -24.0896 -24.0775 -24.0299  -7.2198  -7.2198  -7.2090
    -6.1929  -6.0695  -6.0695   4.3956   4.8938   5.0636   5.2519   5.4071
     5.4071   8.4978   8.4978   8.7733  12.6135  12.6135  12.7616  15.3241
    15.9969

          k =-0.4359-0.4359-0.4359 (  1472 PWs)   bands (ev):

   -47.7945 -24.0891 -24.0891 -24.0891 -24.0268  -7.0615  -7.0615  -7.0615
    -6.2601  -6.2601  -6.2601   4.2619   4.8969   4.8969   5.2566   5.2566
     5.2566   8.7913   8.7913   8.7913  12.8057  12.8057  12.8057  15.3749
    16.3745

     highest occupied, lowest unoccupied level (ev):     8.7913   10.4890

!    total energy              =    -286.58693465 Ry
     Harris-Foulkes estimate   =    -286.58693466 Ry
     estimated scf accuracy    <       0.00000002 Ry

     The total energy is the sum of the following terms:

     one-electron contribution =     -85.05361886 Ry
     hartree contribution      =      62.82189664 Ry
     xc contribution           =     -57.63898948 Ry
     ewald contribution        =    -206.71622295 Ry

     convergence has been achieved in  23 iterations

     Forces acting on atoms (Ry/au):

     atom    1 type  1   force =     0.00000000    0.00000000    0.00000000
     atom    2 type  2   force =     0.00000000    0.00000000    0.00000000
     atom    3 type  3   force =     0.00000000    0.00000000    0.00000000
     atom    4 type  3   force =     0.00000000    0.00000000    0.00000000
     atom    5 type  3   force =     0.00000000    0.00000000    0.00000000

     Total force =     0.000000     Total SCF correction =     0.000000


     entering subroutine stress ...

          total   stress  (Ry/bohr**3)                   (kbar)     P= -159.43
  -0.00108380   0.00000000   0.00000000       -159.43      0.00      0.00
   0.00000000  -0.00108380   0.00000000          0.00   -159.43      0.00
   0.00000000   0.00000000  -0.00108380          0.00      0.00   -159.43


     number of scf cycles    =   2
     number of bfgs steps    =   1

     enthalpy old            =    -286.2786208918 Ry
     enthalpy new            =    -286.5869346468 Ry

     CASE: enthalpy_new < enthalpy_old

     new trust radius        =       0.0801564645 bohr
     new conv_thr            =       0.0000000010 Ry

     new unit-cell volume =    411.92727 a.u.^3 (    61.04132 Ang^3 )

CELL_PARAMETERS (alat=  6.61400000)
   1.124974449   0.000000000   0.000000000
   0.000000000   1.124974449   0.000000000
   0.000000000   0.000000000   1.124974449

ATOMIC_POSITIONS (crystal)
Sr       0.000000000   0.000000000   0.000000000
Ti       0.500000000   0.500000000   0.500000000
O        0.500000000   0.500000000   0.000000000
O        0.500000000   0.000000000   0.500000000
O        0.000000000   0.500000000   0.500000000



     Writing output data file aiida.save
     NEW-OLD atomic charge density approx. for the potential

     Check: negative/imaginary core charge=   -0.000035    0.000000
     extrapolated charge   37.66727, renormalised to   40.00000

     total cpu time spent up to now is      134.5 secs

     per-process dynamical memory:    26.3 Mb

     Self-consistent Calculation

     iteration #  1     ecut=    44.00 Ry     beta=0.80
     Davidson diagonalization with overlap
     ethr =  1.00E-06,  avg # of iterations =  5.8

     total cpu time spent up to now is      141.0 secs

     total energy              =    -284.95874434 Ry
     Harris-Foulkes estimate   =    -290.43637600 Ry
     estimated scf accuracy    <       1.41048564 Ry

     iteration #  2     ecut=    44.00 Ry     beta=0.80
     Davidson diagonalization with overlap
     ethr =  3.53E-03,  avg # of iterations =  5.2

     total cpu time spent up to now is      146.5 secs

     total energy              =    -286.62788508 Ry
     Harris-Foulkes estimate   =    -288.59799099 Ry
     estimated scf accuracy    <       4.22812053 Ry

     iteration #  3     ecut=    44.00 Ry     beta=0.80
     Davidson diagonalization with overlap
     ethr =  3.53E-03,  avg # of iterations =  3.3

     total cpu time spent up to now is      150.5 secs

     total energy              =    -286.73202895 Ry
     Harris-Foulkes estimate   =    -286.92686751 Ry
     estimated scf accuracy    <       0.85585255 Ry

     iteration #  4     ecut=    44.00 Ry     beta=0.80
     Davidson diagonalization with overlap
     ethr =  2.14E-03,  avg # of iterations =  1.6

     total cpu time spent up to now is      153.5 secs

     total energy              =    -286.63827967 Ry
     Harris-Foulkes estimate   =    -286.75182309 Ry
     estimated scf accuracy    <       0.49037557 Ry

     iteration #  5     ecut=    44.00 Ry     beta=0.80
     Davidson diagonalization with overlap
     ethr =  1.23E-03,  avg # of iterations =  4.0

     total cpu time spent up to now is      157.3 secs

     total energy              =    -286.62293167 Ry
     Harris-Foulkes estimate   =    -286.65943729 Ry
     estimated scf accuracy    <       0.17314373 Ry

     iteration #  6     ecut=    44.00 Ry     beta=0.80
     Davidson diagonalization with overlap
     ethr =  4.33E-04,  avg # of iterations =  1.4

     total cpu time spent up to now is      160.1 secs

     total energy              =    -286.62341040 Ry
     Harris-Foulkes estimate   =    -286.62717252 Ry
     estimated scf accuracy    <       0.07962690 Ry

     iteration #  7     ecut=    44.00 Ry     beta=0.80
     Davidson diagonalization with overlap
     ethr =  1.99E-04,  avg # of iterations =  1.9

     total cpu time spent up to now is      163.3 secs

     total energy              =    -286.61107309 Ry
     Harris-Foulkes estimate   =    -286.62405461 Ry
     estimated scf accuracy    <       0.06678040 Ry

     iteration #  8     ecut=    44.00 Ry     beta=0.80
     Davidson diagonalization with overlap
     ethr =  1.67E-04,  avg # of iterations =  2.4

     total cpu time spent up to now is      166.4 secs

     total energy              =    -286.60592847 Ry
     Harris-Foulkes estimate   =    -286.61327096 Ry
     estimated scf accuracy    <       0.02667460 Ry

     iteration #  9     ecut=    44.00 Ry     beta=0.80
     Davidson diagonalization with overlap
     ethr =  6.67E-05,  avg # of iterations =  3.0

     total cpu time spent up to now is      170.0 secs

     total energy              =    -286.60656992 Ry
     Harris-Foulkes estimate   =    -286.60782356 Ry
     estimated scf accuracy    <       0.00554914 Ry

     iteration # 10     ecut=    44.00 Ry     beta=0.80
     Davidson diagonalization with overlap
     ethr =  1.39E-05,  avg # of iterations =  3.6

     total cpu time spent up to now is      173.7 secs

     total energy              =    -286.60599929 Ry
     Harris-Foulkes estimate   =    -286.60689247 Ry
     estimated scf accuracy    <       0.00159802 Ry

     iteration # 11     ecut=    44.00 Ry     beta=0.80
     Davidson diagonalization with overlap
     ethr =  4.00E-06,  avg # of iterations =  4.8

     total cpu time spent up to now is      178.0 secs

     total energy              =    -286.60639463 Ry
     Harris-Foulkes estimate   =    -286.60651013 Ry
     estimated scf accuracy    <       0.00027539 Ry

     iteration # 12     ecut=    44.00 Ry     beta=0.80
     Davidson diagonalization with overlap
     ethr =  6.88E-07,  avg # of iterations =  2.5

     total cpu time spent up to now is      181.4 secs

     total energy              =    -286.60645771 Ry
     Harris-Foulkes estimate   =    -286.60646244 Ry
     estimated scf accuracy    <       0.00002484 Ry

     iteration # 13     ecut=    44.00 Ry     beta=0.80
     Davidson diagonalization with overlap
     ethr =  6.21E-08,  avg # of iterations =  2.2

     total cpu time spent up to now is      184.4 secs

     total energy              =    -286.60645818 Ry
     Harris-Foulkes estimate   =    -286.60645991 Ry
     estimated scf accuracy    <       0.00000968 Ry

     iteration # 14     ecut=    44.00 Ry     beta=0.80
     Davidson diagonalization with overlap
     ethr =  2.42E-08,  avg # of iterations =  2.2

     total cpu time spent up to now is      187.7 secs

     total energy              =    -286.60645836 Ry
     Harris-Foulkes estimate   =    -286.60646100 Ry
     estimated scf accuracy    <       0.00001039 Ry

     iteration # 15     ecut=    44.00 Ry     beta=0.80
     Davidson diagonalization with overlap
     ethr =  2.42E-08,  avg # of iterations =  1.0

     total cpu time spent up to now is      190.4 secs

     total energy              =    -286.60645661 Ry
     Harris-Foulkes estimate   =    -286.60645868 Ry
     estimated scf accuracy    <       0.00000397 Ry

     iteration # 16     ecut=    44.00 Ry     beta=0.80
     Davidson diagonalization with overlap
     ethr =  9.93E-09,  avg # of iterations =  2.2

     total cpu time spent up to now is      194.1 secs

     total energy              =    -286.60645679 Ry
     Harris-Foulkes estimate   =    -286.60645760 Ry
     estimated scf accuracy    <       0.00000271 Ry

     iteration # 17     ecut=    44.00 Ry     beta=0.80
     Davidson diagonalization with overlap
     ethr =  6.78E-09,  avg # of iterations =  1.2

     total cpu time spent up to now is      197.0 secs

     total energy              =    -286.60645697 Ry
     Harris-Foulkes estimate   =    -286.60645700 Ry
     estimated scf accuracy    <       0.00000032 Ry

     iteration # 18     ecut=    44.00 Ry     beta=0.80
     Davidson diagonalization with overlap
     ethr =  8.09E-10,  avg # of iterations =  1.9

     total cpu time spent up to now is      200.2 secs

     total energy              =    -286.60645692 Ry
     Harris-Foulkes estimate   =    -286.60645698 Ry
     estimated scf accuracy    <       0.00000016 Ry

     iteration # 19     ecut=    44.00 Ry     beta=0.80
     Davidson diagonalization with overlap
     ethr =  4.07E-10,  avg # of iterations =  2.2

     total cpu time spent up to now is      203.9 secs

     total energy              =    -286.60645695 Ry
     Harris-Foulkes estimate   =    -286.60645695 Ry
     estimated scf accuracy    <       0.00000001 Ry

     iteration # 20     ecut=    44.00 Ry     beta=0.80
     Davidson diagonalization with overlap
     ethr =  3.15E-11,  avg # of iterations =  2.0

     total cpu time spent up to now is      207.4 secs

     End of self-consistent calculation

          k = 0.0000 0.0000 0.0000 (  1365 PWs)   bands (ev):

   -46.7789 -23.1000 -23.0689 -23.0689 -23.0689  -7.6681  -6.6756  -6.6756
    -5.1128  -5.1128  -5.1128   6.7377   6.7377   6.7377   8.4223   8.4223
     8.4223   9.2010   9.2010   9.2010  11.3752  11.3752  11.3752  13.8142
    13.8142

          k = 0.0000 0.0000 0.1482 (  1414 PWs)   bands (ev):

   -46.7788 -23.1428 -23.0682 -23.0682 -23.0364  -7.6843  -6.6770  -6.6661
    -5.1018  -5.1018  -4.9409   6.3941   6.7237   6.7237   8.0847   8.0847
     8.1935   8.4561   9.0544   9.0544  11.4145  11.9405  11.9405  14.5291
    15.2952

          k = 0.0000 0.0000 0.2963 (  1426 PWs)   bands (ev):

   -46.7783 -23.1923 -23.0668 -23.0668 -23.0068  -7.7992  -6.6468  -6.5162
    -5.0793  -5.0793  -4.6608   5.6728   6.7160   6.7160   7.4567   7.5128
     7.5128   7.7997   8.8922   8.8922  12.8560  12.8560  13.8238  15.5231
    16.2617

          k = 0.0000 0.0000-0.4445 (  1422 PWs)   bands (ev):

   -46.7781 -23.2130 -23.0661 -23.0661 -22.9959  -7.8764  -6.6371  -6.3849
    -5.0679  -5.0679  -4.5426   5.2918   6.7384   6.7384   7.0925   7.2444
     7.2444   7.6234   8.8315   8.8315  13.2705  13.2705  13.8259  15.9365
    16.7435

          k = 0.0000 0.1482 0.1482 (  1418 PWs)   bands (ev):

   -46.7785 -23.1516 -23.0839 -23.0675 -23.0216  -7.6506  -6.7249  -6.6404
    -5.0901  -5.0053  -4.8940   6.1980   6.5582   6.7136   7.4028   7.8459
     8.2770   8.4033   8.7427   8.8249  11.9018  12.0254  12.2237  14.1659
    14.9579

          k = 0.0000 0.1482 0.2963 (  1414 PWs)   bands (ev):

   -46.7781 -23.1810 -23.0858 -23.0661 -23.0097  -7.6790  -6.6768  -6.5716
    -5.0664  -4.9669  -4.6951   5.6222   6.3033   6.6808   6.7128   7.3695
     7.7191   8.3590   8.5781   8.6098  12.0114  12.8664  12.9211  14.2757
    15.9152

          k = 0.0000 0.1482-0.4445 (  1430 PWs)   bands (ev):

   -46.7779 -23.1977 -23.0819 -23.0654 -23.0066  -7.7289  -6.6115  -6.5187
    -5.0545  -4.9574  -4.6010   5.2745   6.0905   6.5062   6.7440   7.1181
     7.5444   8.3512   8.4891   8.4951  12.0424  13.2720  13.3035  14.2878
    16.3216

          k = 0.0000 0.2963 0.2963 (  1424 PWs)   bands (ev):

   -46.7777 -23.1602 -23.1139 -23.0647 -23.0235  -7.4453  -6.8062  -6.5639
    -5.0405  -4.8003  -4.7293   5.3751   5.7627   5.8591   6.7182   7.0678
     7.7960   8.0824   8.1600   9.1221  12.8322  12.9274  13.2642  14.6045
    16.8573

          k = 0.0000 0.2963-0.4445 (  1430 PWs)   bands (ev):

   -46.7775 -23.1590 -23.1132 -23.0640 -23.0356  -7.3609  -6.7425  -6.6470
    -5.0275  -4.7774  -4.6840   5.2095   5.2749   5.7666   6.7570   6.8786
     7.8540   8.0083   8.0268   9.2522  12.8893  13.2765  13.5290  14.6685
    17.2797

          k = 0.0000-0.4445-0.4445 (  1452 PWs)   bands (ev):

   -46.7773 -23.1288 -23.1288 -23.0634 -23.0611  -7.0149  -6.8406  -6.8406
    -5.0141  -4.6999  -4.6999   4.9794   5.0618   5.4530   6.7638   6.7638
     7.8122   8.0063   8.0063   9.4829  13.2792  13.2792  13.7257  14.7458
    17.3327

          k = 0.1482 0.1482 0.1482 (  1436 PWs)   bands (ev):

   -46.7783 -23.1528 -23.0832 -23.0832 -23.0150  -7.5897  -6.6888  -6.6888
    -5.0369  -5.0369  -4.8204   6.0013   6.5548   6.5548   7.3228   7.3228
     7.7704   8.6731   8.6731   8.6838  12.2020  12.2941  12.2941  14.9563
    14.9563

          k = 0.1482 0.1482 0.2963 (  1424 PWs)   bands (ev):

   -46.7779 -23.1704 -23.0876 -23.0817 -23.0128  -7.5563  -6.6520  -6.6113
    -5.1057  -4.9212  -4.7120   5.5657   6.1696   6.5336   6.6472   6.7995
     7.6168   8.4730   8.5513   8.6835  12.3353  12.9537  12.9615  14.9437
    16.0751

          k = 0.1482 0.1482-0.4445 (  1434 PWs)   bands (ev):

   -46.7777 -23.1843 -23.0813 -23.0810 -23.0151  -7.5820  -6.5720  -6.5693
    -5.1437  -4.8552  -4.6763   5.2626   5.9613   6.3858   6.4776   6.6592
     7.7003   8.3308   8.4979   8.6005  12.3739  13.3199  13.3420  14.9301
    16.5094

          k = 0.1482 0.2963 0.2963 (  1435 PWs)   bands (ev):

   -46.7775 -23.1511 -23.1131 -23.0818 -23.0262  -7.3134  -6.7301  -6.5461
    -5.1204  -4.9044  -4.7322   5.3818   5.8561   5.8659   6.3945   6.6427
     7.1623   8.4519   8.5511   9.1350  12.9862  13.0572  13.3138  15.4413
    16.8395

          k = 0.1482 0.2963-0.4445 (  1436 PWs)   bands (ev):

   -46.7773 -23.1516 -23.1124 -23.0797 -23.0380  -7.2168  -6.6882  -6.5637
    -5.1475  -4.8150  -4.7991   5.2113   5.4272   5.7760   6.4056   6.4730
     7.1680   8.4710   8.4896   9.2661  13.0527  13.3822  13.5772  15.4885
    17.2449

          k = 0.1482-0.4445-0.4445 (  1428 PWs)   bands (ev):

   -46.7771 -23.1279 -23.1279 -23.0790 -23.0569  -6.8590  -6.7491  -6.7491
    -5.1057  -4.8355  -4.8355   5.0698   5.2000   5.4579   6.4142   6.4142
     7.0632   8.5168   8.5168   9.5051  13.4068  13.4068  13.7779  15.5506
    17.1463

          k = 0.2963 0.2963 0.2963 (  1436 PWs)   bands (ev):

   -46.7771 -23.1327 -23.1114 -23.1114 -23.0361  -7.0313  -6.5457  -6.5457
    -5.1444  -5.1444  -4.8368   5.3611   5.8838   5.8838   5.9791   6.1770
     6.1770   8.9587   8.9587   9.2566  13.3863  13.4269  13.4269  16.7453
    16.7453

          k = 0.2963 0.2963-0.4445 (  1426 PWs)   bands (ev):

   -46.7769 -23.1354 -23.1110 -23.1106 -23.0442  -6.8700  -6.5744  -6.4255
    -5.2923  -5.0382  -4.9865   5.1828   5.6677   5.7456   5.9050   5.9980
     6.2320   9.0257   9.1445   9.3610  13.4635  13.6586  13.6898  16.6406
    16.9499

          k = 0.2963-0.4445-0.4445 (  1428 PWs)   bands (ev):

   -46.7766 -23.1262 -23.1262 -23.1099 -23.0484  -6.5269  -6.5167  -6.5167
    -5.2813  -5.1549  -5.1549   5.0427   5.4668   5.6430   5.8786   6.0114
     6.0114   9.2514   9.2514   9.5482  13.7237  13.7237  13.8837  16.9118
    16.9118

          k =-0.4445-0.4445-0.4445 (  1472 PWs)   bands (ev):

   -46.7765 -23.1254 -23.1254 -23.1254 -23.0443  -6.3490  -6.3490  -6.3490
    -5.3656  -5.3656  -5.3656   4.9166   5.4707   5.4707   5.8654   5.8654
     5.8654   9.5691   9.5691   9.5691  13.9372  13.9372  13.9372  16.3741
    16.3741

     highest occupied, lowest unoccupied level (ev):     9.5691   11.3752

!    total energy              =    -286.60645695 Ry
     Harris-Foulkes estimate   =    -286.60645695 Ry
     estimated scf accuracy    <          2.8E-10 Ry

     The total energy is the sum of the following terms:

     one-electron contribution =     -79.19539816 Ry
     hartree contribution      =      61.17306465 Ry
     xc contribution           =     -57.82524320 Ry
     ewald contribution        =    -210.75888025 Ry

     convergence has been achieved in  20 iterations

     Forces acting on atoms (Ry/au):

     atom    1 type  1   force =     0.00000000    0.00000000    0.00000000
     atom    2 type  2   force =     0.00000000    0.00000000    0.00000000
     atom    3 type  3   force =     0.00000000    0.00000000    0.00000000
     atom    4 type  3   force =     0.00000000    0.00000000    0.00000000
     atom    5 type  3   force =     0.00000000    0.00000000    0.00000000

     Total force =     0.000000     Total SCF correction =     0.000000


     entering subroutine stress ...

          total   stress  (Ry/bohr**3)                   (kbar)     P=  -69.68
  -0.00047369   0.00000000   0.00000000        -69.68      0.00      0.00
   0.00000000  -0.00047369   0.00000000          0.00    -69.68      0.00
   0.00000000   0.00000000  -0.00047369          0.00      0.00    -69.68


     number of scf cycles    =   3
     number of bfgs steps    =   2

     enthalpy old            =    -286.5869346468 Ry
     enthalpy new            =    -286.6064569520 Ry

     CASE: enthalpy_new < enthalpy_old

     new trust radius        =       0.0575926475 bohr
     new conv_thr            =       0.0000000010 Ry

     new unit-cell volume =    394.64137 a.u.^3 (    58.47982 Ang^3 )

CELL_PARAMETERS (alat=  6.61400000)
   1.109013106   0.000000000   0.000000000
   0.000000000   1.109013106   0.000000000
   0.000000000   0.000000000   1.109013106

ATOMIC_POSITIONS (crystal)
Sr       0.000000000   0.000000000   0.000000000
Ti       0.500000000   0.500000000   0.500000000
O        0.500000000   0.500000000   0.000000000
O        0.500000000   0.000000000   0.500000000
O        0.000000000   0.500000000   0.500000000



     Writing output data file aiida.save
     NEW-OLD atomic charge density approx. for the potential

     Check: negative/imaginary core charge=   -0.000025    0.000000
     extrapolated charge   38.29205, renormalised to   40.00000

     total cpu time spent up to now is      227.7 secs

     per-process dynamical memory:    26.3 Mb

     Self-consistent Calculation

     iteration #  1     ecut=    44.00 Ry     beta=0.80
     Davidson diagonalization with overlap
     ethr =  1.00E-06,  avg # of iterations =  5.7

     total cpu time spent up to now is      234.8 secs

     total energy              =    -286.06447466 Ry
     Harris-Foulkes estimate   =    -289.25584566 Ry
     estimated scf accuracy    <       0.42927527 Ry

     iteration #  2     ecut=    44.00 Ry     beta=0.80
     Davidson diagonalization with overlap
     ethr =  1.07E-03,  avg # of iterations =  5.7

     total cpu time spent up to now is      241.4 secs

     total energy              =    -286.56729555 Ry
     Harris-Foulkes estimate   =    -287.24343858 Ry
     estimated scf accuracy    <       1.53495952 Ry

     iteration #  3     ecut=    44.00 Ry     beta=0.80
     Davidson diagonalization with overlap
     ethr =  1.07E-03,  avg # of iterations =  4.0

     total cpu time spent up to now is      247.2 secs

     total energy              =    -286.64488799 Ry
     Harris-Foulkes estimate   =    -286.69428129 Ry
     estimated scf accuracy    <       0.23616117 Ry

     iteration #  4     ecut=    44.00 Ry     beta=0.80
     Davidson diagonalization with overlap
     ethr =  5.90E-04,  avg # of iterations =  1.0

     total cpu time spent up to now is      250.6 secs

     total energy              =    -286.61134521 Ry
     Harris-Foulkes estimate   =    -286.65019118 Ry
     estimated scf accuracy    <       0.13290271 Ry

     iteration #  5     ecut=    44.00 Ry     beta=0.80
     Davidson diagonalization with overlap
     ethr =  3.32E-04,  avg # of iterations =  2.7

     total cpu time spent up to now is      254.2 secs

     total energy              =    -286.61134084 Ry
     Harris-Foulkes estimate   =    -286.61915216 Ry
     estimated scf accuracy    <       0.03131046 Ry

     iteration #  6     ecut=    44.00 Ry     beta=0.80
     Davidson diagonalization with overlap
     ethr =  7.83E-05,  avg # of iterations =  3.0

     total cpu time spent up to now is      258.0 secs

     total energy              =    -286.61078490 Ry
     Harris-Foulkes estimate   =    -286.61295502 Ry
     estimated scf accuracy    <       0.01057198 Ry

     iteration #  7     ecut=    44.00 Ry     beta=0.80
     Davidson diagonalization with overlap
     ethr =  2.64E-05,  avg # of iterations =  3.1

     total cpu time spent up to now is      262.0 secs

     total energy              =    -286.61296061 Ry
     Harris-Foulkes estimate   =    -286.61131109 Ry
     estimated scf accuracy    <       0.00388072 Ry

     iteration #  8     ecut=    44.00 Ry     beta=0.80
     Davidson diagonalization with overlap
     ethr =  9.70E-06,  avg # of iterations =  2.9

     total cpu time spent up to now is      265.8 secs

     total energy              =    -286.61220646 Ry
     Harris-Foulkes estimate   =    -286.61329654 Ry
     estimated scf accuracy    <       0.01030693 Ry

     iteration #  9     ecut=    44.00 Ry     beta=0.80
     Davidson diagonalization with overlap
     ethr =  9.70E-06,  avg # of iterations =  1.1

     total cpu time spent up to now is      269.1 secs

     total energy              =    -286.60816430 Ry
     Harris-Foulkes estimate   =    -286.61227158 Ry
     estimated scf accuracy    <       0.00716496 Ry

     iteration # 10     ecut=    44.00 Ry     beta=0.80
     Davidson diagonalization with overlap
     ethr =  9.70E-06,  avg # of iterations =  5.0

     total cpu time spent up to now is      274.7 secs

     total energy              =    -286.61001259 Ry
     Harris-Foulkes estimate   =    -286.61021630 Ry
     estimated scf accuracy    <       0.00044263 Ry

     iteration # 11     ecut=    44.00 Ry     beta=0.80
     Davidson diagonalization with overlap
     ethr =  1.11E-06,  avg # of iterations =  3.5

     total cpu time spent up to now is      279.3 secs

     total energy              =    -286.61010202 Ry
     Harris-Foulkes estimate   =    -286.61010489 Ry
     estimated scf accuracy    <       0.00002141 Ry

     iteration # 12     ecut=    44.00 Ry     beta=0.80
     Davidson diagonalization with overlap
     ethr =  5.35E-08,  avg # of iterations =  2.3

     total cpu time spent up to now is      283.4 secs

     total energy              =    -286.61009342 Ry
     Harris-Foulkes estimate   =    -286.61010540 Ry
     estimated scf accuracy    <       0.00003170 Ry

     iteration # 13     ecut=    44.00 Ry     beta=0.80
     Davidson diagonalization with overlap
     ethr =  5.35E-08,  avg # of iterations =  1.9

     total cpu time spent up to now is      287.1 secs

     total energy              =    -286.61009694 Ry
     Harris-Foulkes estimate   =    -286.61009687 Ry
     estimated scf accuracy    <       0.00000119 Ry

     iteration # 14     ecut=    44.00 Ry     beta=0.80
     Davidson diagonalization with overlap
     ethr =  2.96E-09,  avg # of iterations =  2.0

     total cpu time spent up to now is      290.7 secs

     total energy              =    -286.61009651 Ry
     Harris-Foulkes estimate   =    -286.61009702 Ry
     estimated scf accuracy    <       0.00000123 Ry

     iteration # 15     ecut=    44.00 Ry     beta=0.80
     Davidson diagonalization with overlap
     ethr =  2.96E-09,  avg # of iterations =  1.7

     total cpu time spent up to now is      294.1 secs

     total energy              =    -286.61009662 Ry
     Harris-Foulkes estimate   =    -286.61009665 Ry
     estimated scf accuracy    <       0.00000007 Ry

     iteration # 16     ecut=    44.00 Ry     beta=0.80
     Davidson diagonalization with overlap
     ethr =  1.64E-10,  avg # of iterations =  2.9

     total cpu time spent up to now is      298.5 secs

     total energy              =    -286.61009664 Ry
     Harris-Foulkes estimate   =    -286.61009664 Ry
     estimated scf accuracy    <          9.9E-09 Ry

     iteration # 17     ecut=    44.00 Ry     beta=0.80
     Davidson diagonalization with overlap
     ethr =  2.48E-11,  avg # of iterations =  1.9

     total cpu time spent up to now is      302.2 secs

     End of self-consistent calculation

          k = 0.0000 0.0000 0.0000 (  1365 PWs)   bands (ev):

   -45.9935 -22.3649 -22.3171 -22.3171 -22.3171  -7.2204  -6.1926  -6.1926
    -4.3945  -4.3945  -4.3945   7.3102   7.3102   7.3102   8.9517   8.9517
     8.9517   9.8295   9.8295   9.8295  12.0555  12.0555  12.0555  14.7221
    15.5110

          k = 0.0000 0.0000 0.1503 (  1414 PWs)   bands (ev):

   -45.9932 -22.4120 -22.3162 -22.3162 -22.2824  -7.2405  -6.1817  -6.1815
    -4.3814  -4.3814  -4.2085   6.9465   7.2859   7.2859   8.5981   8.5981
     8.7051   9.0483   9.6753   9.6753  12.0997  12.6621  12.6621  14.7332
    15.4698

          k = 0.0000 0.0000 0.3006 (  1426 PWs)   bands (ev):

   -45.9927 -22.4705 -22.3144 -22.3144 -22.2482  -7.3736  -6.1597  -5.9804
    -4.3547  -4.3547  -3.9010   6.1735   7.2529   7.2529   7.9964   8.0100
     8.0100   8.2810   9.5038   9.5038  12.1920  13.6481  13.6481  14.7432
    16.5338

          k = 0.0000 0.0000-0.4509 (  1422 PWs)   bands (ev):

   -45.9924 -22.4953 -22.3135 -22.3135 -22.2354  -7.4607  -6.1486  -5.8246
    -4.3412  -4.3412  -3.7697   5.7613   7.2578   7.2578   7.6128   7.7406
     7.7406   8.0924   9.4401   9.4401  14.0973  14.0973  14.7464  16.9882
    17.4993

          k = 0.0000 0.1503 0.1503 (  1418 PWs)   bands (ev):

   -45.9929 -22.4222 -22.3357 -22.3153 -22.2648  -7.2042  -6.2293  -6.1476
    -4.3675  -4.2830  -4.1528   6.7248   7.1164   7.2649   7.8982   8.3424
     8.8521   8.9423   9.3275   9.4400  12.6206  12.7561  12.9619  15.1027
    15.9210

          k = 0.0000 0.1503 0.3006 (  1414 PWs)   bands (ev):

   -45.9924 -22.4567 -22.3380 -22.3135 -22.2515  -7.2419  -6.1711  -6.0531
    -4.3392  -4.2379  -3.9389   6.1153   6.7938   7.1922   7.2370   7.8499
     8.2450   8.9130   9.1722   9.1855  12.7431  13.6601  13.7111  15.2223
    16.9401

          k = 0.0000 0.1503-0.4509 (  1430 PWs)   bands (ev):

   -45.9921 -22.4766 -22.3331 -22.3126 -22.2483  -7.2997  -6.1149  -5.9675
    -4.3249  -4.2254  -3.8369   5.7443   6.5345   7.0377   7.2488   7.5994
     8.0577   8.9182   9.0327   9.1000  12.7784  14.0992  14.1261  15.2361
    17.3792

          k = 0.0000 0.3006 0.3006 (  1424 PWs)   bands (ev):

   -45.9918 -22.4311 -22.3726 -22.3118 -22.2685  -6.9899  -6.2899  -6.0466
    -4.3078  -4.0629  -3.9771   5.8254   6.2406   6.3461   7.2098   7.5234
     8.3254   8.6382   8.7727   9.7005  13.6235  13.7285  14.0735  15.5783
    17.7909

          k = 0.0000 0.3006-0.4509 (  1430 PWs)   bands (ev):

   -45.9916 -22.4292 -22.3718 -22.3109 -22.2840  -6.9018  -6.2090  -6.1357
    -4.2920  -4.0345  -3.9329   5.6735   5.6893   6.2541   7.2232   7.3322
     8.3985   8.5776   8.6264   9.8366  13.6872  14.1049  14.3601  15.6478
    18.2566

          k = 0.0000-0.4509-0.4509 (  1452 PWs)   bands (ev):

   -45.9913 -22.3911 -22.3911 -22.3164 -22.3101  -6.5477  -6.3155  -6.3155
    -4.2755  -3.9516  -3.9516   5.3612   5.5495   5.8988   7.2047   7.2047
     8.4463   8.5669   8.5669  10.0797  14.1082  14.1082  14.5704  15.7324
    18.1456

          k = 0.1503 0.1503 0.1503 (  1436 PWs)   bands (ev):

   -45.9927 -22.4234 -22.3347 -22.3347 -22.2567  -7.1368  -6.1909  -6.1909
    -4.3170  -4.3170  -4.0683   6.5006   7.1062   7.1062   7.8055   7.8055
     8.3620   9.2297   9.2528   9.2528  12.9477  13.0380  13.0380  15.9272
    15.9272

          k = 0.1503 0.1503 0.3006 (  1424 PWs)   bands (ev):

   -45.9921 -22.4438 -22.3403 -22.3328 -22.2551  -7.1062  -6.1260  -6.1087
    -4.3908  -4.1891  -3.9541   6.0478   6.6520   7.0471   7.1494   7.2963
     8.1758   9.0409   9.1139   9.2269  13.0911  13.7531  13.7533  15.9193
    17.1078

          k = 0.1503 0.1503-0.4509 (  1434 PWs)   bands (ev):

   -45.9918 -22.4602 -22.3324 -22.3319 -22.2587  -7.1385  -6.0643  -6.0247
    -4.4313  -4.1095  -3.9227   5.7330   6.3958   6.8959   6.9434   7.1955
     8.2674   8.8884   9.0541   9.1371  13.1346  14.1492  14.1664  15.9066
    17.5705

          k = 0.1503 0.3006 0.3006 (  1435 PWs)   bands (ev):

   -45.9916 -22.4198 -22.3716 -22.3331 -22.2718  -6.8420  -6.2086  -6.0243
    -4.4074  -4.1793  -3.9773   5.8426   6.3334   6.3527   6.8854   7.1080
     7.7300   9.0007   9.1110   9.7116  13.7909  13.8647  14.1307  16.4472
    17.9006

          k = 0.1503 0.3006-0.4509 (  1436 PWs)   bands (ev):

   -45.9913 -22.4200 -22.3708 -22.3303 -22.2870  -6.7413  -6.1508  -6.0433
    -4.4367  -4.0728  -4.0629   5.6929   5.8416   6.2645   6.8705   6.9538
     7.7422   9.0248   9.0406   9.8502  13.8635  14.2171  14.4153  16.4974
    18.2123

          k = 0.1503-0.4509-0.4509 (  1428 PWs)   bands (ev):

   -45.9910 -22.3899 -22.3899 -22.3294 -22.3111  -6.3711  -6.2175  -6.2175
    -4.3855  -4.1046  -4.1046   5.5613   5.6081   5.9038   6.8760   6.8760
     7.6514   9.0754   9.0754  10.1030  14.2451  14.2451  14.6308  16.5597
    17.9561

          k = 0.3006 0.3006 0.3006 (  1436 PWs)   bands (ev):

   -45.9910 -22.3969 -22.3694 -22.3694 -22.2844  -6.5295  -6.0121  -6.0121
    -4.4455  -4.4455  -4.0980   5.8481   6.3696   6.3696   6.4825   6.6477
     6.6477   9.5293   9.5293   9.8385  14.2238  14.2571  14.2571  17.7567
    17.7567

          k = 0.3006 0.3006-0.4509 (  1426 PWs)   bands (ev):

   -45.9908 -22.3995 -22.3690 -22.3684 -22.2951  -6.3586  -6.0294  -5.8847
    -4.6075  -4.3314  -4.2675   5.6795   6.1106   6.2397   6.3892   6.4725
     6.7185   9.5959   9.7266   9.9490  14.3040  14.5130  14.5416  17.6010
    17.8027

          k = 0.3006-0.4509-0.4509 (  1428 PWs)   bands (ev):

   -45.9905 -22.3876 -22.3876 -22.3676 -22.3007  -5.9929  -5.9683  -5.9683
    -4.5943  -4.4614  -4.4614   5.5515   5.9133   6.1014   6.3729   6.4890
     6.4890   9.8363   9.8363  10.1494  14.5844  14.5844  14.7530  17.2617
    17.7135

          k =-0.4509-0.4509-0.4509 (  1472 PWs)   bands (ev):

   -45.9902 -22.3866 -22.3866 -22.3866 -22.2955  -5.7887  -5.7887  -5.7887
    -4.6938  -4.6938  -4.6938   5.4352   5.9177   5.9177   6.3484   6.3484
     6.3484  10.1724  10.1724  10.1724  14.8149  14.8149  14.8149  18.8896
    18.8896

     highest occupied, lowest unoccupied level (ev):    10.1724   12.0555

!    total energy              =    -286.61009664 Ry
     Harris-Foulkes estimate   =    -286.61009664 Ry
     estimated scf accuracy    <          3.7E-10 Ry

     The total energy is the sum of the following terms:

     one-electron contribution =     -74.82416645 Ry
     hartree contribution      =      59.97796971 Ry
     xc contribution           =     -57.97169776 Ry
     ewald contribution        =    -213.79220213 Ry

     convergence has been achieved in  17 iterations

     Forces acting on atoms (Ry/au):

     atom    1 type  1   force =     0.00000000    0.00000000    0.00000000
     atom    2 type  2   force =     0.00000000    0.00000000    0.00000000
     atom    3 type  3   force =     0.00000000    0.00000000    0.00000000
     atom    4 type  3   force =     0.00000000    0.00000000    0.00000000
     atom    5 type  3   force =     0.00000000    0.00000000    0.00000000

     Total force =     0.000000     Total SCF correction =     0.000000


     entering subroutine stress ...

          total   stress  (Ry/bohr**3)                   (kbar)     P=   10.46
   0.00007111   0.00000000   0.00000000         10.46      0.00      0.00
   0.00000000   0.00007111   0.00000000          0.00     10.46      0.00
   0.00000000   0.00000000   0.00007111          0.00      0.00     10.46


     number of scf cycles    =   4
     number of bfgs steps    =   3

     enthalpy old            =    -286.6064569520 Ry
     enthalpy new            =    -286.6100966368 Ry

     CASE: enthalpy_new < enthalpy_old

     new trust radius        =       0.0072801716 bohr
     new conv_thr            =       0.0000000010 Ry

     new unit-cell volume =    396.81472 a.u.^3 (    58.80187 Ang^3 )

CELL_PARAMETERS (alat=  6.61400000)
   1.111045215   0.000000000   0.000000000
   0.000000000   1.111045215   0.000000000
   0.000000000   0.000000000   1.111045215

ATOMIC_POSITIONS (crystal)
Sr       0.000000000   0.000000000   0.000000000
Ti       0.500000000   0.500000000   0.500000000
O        0.500000000   0.500000000   0.000000000
O        0.500000000   0.000000000   0.500000000
O        0.000000000   0.500000000   0.500000000



     Writing output data file aiida.save
     NEW-OLD atomic charge density approx. for the potential

     Check: negative/imaginary core charge=   -0.000026    0.000000
     extrapolated charge   40.21356, renormalised to   40.00000

     total cpu time spent up to now is      324.1 secs

     per-process dynamical memory:    26.3 Mb

     Self-consistent Calculation

     iteration #  1     ecut=    44.00 Ry     beta=0.80
     Davidson diagonalization with overlap
     c_bands:  1 eigenvalues not converged
     ethr =  1.00E-06,  avg # of iterations =  5.8

     total cpu time spent up to now is      331.3 secs

     total energy              =    -286.60485289 Ry
     Harris-Foulkes estimate   =    -286.28653784 Ry
     estimated scf accuracy    <       0.00368929 Ry

     iteration #  2     ecut=    44.00 Ry     beta=0.80
     Davidson diagonalization with overlap
     ethr =  9.22E-06,  avg # of iterations =  4.8

     total cpu time spent up to now is      338.5 secs

     total energy              =    -286.60814222 Ry
     Harris-Foulkes estimate   =    -286.61600320 Ry
     estimated scf accuracy    <       0.02085495 Ry

     iteration #  3     ecut=    44.00 Ry     beta=0.80
     Davidson diagonalization with overlap
     ethr =  9.22E-06,  avg # of iterations =  3.6

     total cpu time spent up to now is      343.9 secs

     total energy              =    -286.61035253 Ry
     Harris-Foulkes estimate   =    -286.61101891 Ry
     estimated scf accuracy    <       0.00269419 Ry

     iteration #  4     ecut=    44.00 Ry     beta=0.80
     Davidson diagonalization with overlap
     ethr =  6.74E-06,  avg # of iterations =  1.6

     total cpu time spent up to now is      348.8 secs

     total energy              =    -286.61025073 Ry
     Harris-Foulkes estimate   =    -286.61053630 Ry
     estimated scf accuracy    <       0.00116510 Ry

     iteration #  5     ecut=    44.00 Ry     beta=0.80
     Davidson diagonalization with overlap
     ethr =  2.91E-06,  avg # of iterations =  2.5

     total cpu time spent up to now is      353.4 secs

     total energy              =    -286.61023301 Ry
     Harris-Foulkes estimate   =    -286.61030537 Ry
     estimated scf accuracy    <       0.00042529 Ry

     iteration #  6     ecut=    44.00 Ry     beta=0.80
     Davidson diagonalization with overlap
     ethr =  1.06E-06,  avg # of iterations =  1.3

     total cpu time spent up to now is      357.6 secs

     total energy              =    -286.61019804 Ry
     Harris-Foulkes estimate   =    -286.61024271 Ry
     estimated scf accuracy    <       0.00023243 Ry

     iteration #  7     ecut=    44.00 Ry     beta=0.80
     Davidson diagonalization with overlap
     ethr =  5.81E-07,  avg # of iterations =  1.2

     total cpu time spent up to now is      361.3 secs

     total energy              =    -286.61016034 Ry
     Harris-Foulkes estimate   =    -286.61020453 Ry
     estimated scf accuracy    <       0.00011089 Ry

     iteration #  8     ecut=    44.00 Ry     beta=0.80
     Davidson diagonalization with overlap
     ethr =  2.77E-07,  avg # of iterations =  2.5

     total cpu time spent up to now is      366.2 secs

     total energy              =    -286.61017470 Ry
     Harris-Foulkes estimate   =    -286.61017313 Ry
     estimated scf accuracy    <       0.00000979 Ry

     iteration #  9     ecut=    44.00 Ry     beta=0.80
     Davidson diagonalization with overlap
     ethr =  2.45E-08,  avg # of iterations =  1.9

     total cpu time spent up to now is      370.5 secs

     total energy              =    -286.61017503 Ry
     Harris-Foulkes estimate   =    -286.61017511 Ry
     estimated scf accuracy    <       0.00001485 Ry

     iteration # 10     ecut=    44.00 Ry     beta=0.80
     Davidson diagonalization with overlap
     ethr =  2.45E-08,  avg # of iterations =  1.0

     total cpu time spent up to now is      374.1 secs

     total energy              =    -286.61016687 Ry
     Harris-Foulkes estimate   =    -286.61017505 Ry
     estimated scf accuracy    <       0.00001446 Ry

     iteration # 11     ecut=    44.00 Ry     beta=0.80
     Davidson diagonalization with overlap
     ethr =  2.45E-08,  avg # of iterations =  2.5

     total cpu time spent up to now is      379.5 secs

     total energy              =    -286.61017020 Ry
     Harris-Foulkes estimate   =    -286.61017012 Ry
     estimated scf accuracy    <       0.00000012 Ry

     iteration # 12     ecut=    44.00 Ry     beta=0.80
     Davidson diagonalization with overlap
     ethr =  3.02E-10,  avg # of iterations =  3.9

     total cpu time spent up to now is      385.8 secs

     total energy              =    -286.61016997 Ry
     Harris-Foulkes estimate   =    -286.61017077 Ry
     estimated scf accuracy    <       0.00000172 Ry

     iteration # 13     ecut=    44.00 Ry     beta=0.80
     Davidson diagonalization with overlap
     ethr =  3.02E-10,  avg # of iterations =  3.8

     total cpu time spent up to now is      392.1 secs

     total energy              =    -286.61017014 Ry
     Harris-Foulkes estimate   =    -286.61017016 Ry
     estimated scf accuracy    <       0.00000013 Ry

     iteration # 14     ecut=    44.00 Ry     beta=0.80
     Davidson diagonalization with overlap
     ethr =  3.02E-10,  avg # of iterations =  1.0

     total cpu time spent up to now is      395.7 secs

     total energy              =    -286.61017010 Ry
     Harris-Foulkes estimate   =    -286.61017014 Ry
     estimated scf accuracy    <       0.00000008 Ry

     iteration # 15     ecut=    44.00 Ry     beta=0.80
     Davidson diagonalization with overlap
     ethr =  2.02E-10,  avg # of iterations =  2.3

     total cpu time spent up to now is      399.4 secs

     total energy              =    -286.61017011 Ry
     Harris-Foulkes estimate   =    -286.61017011 Ry
     estimated scf accuracy    <          8.6E-09 Ry

     iteration # 16     ecut=    44.00 Ry     beta=0.80
     Davidson diagonalization with overlap
     ethr =  2.15E-11,  avg # of iterations =  1.9

     total cpu time spent up to now is      402.6 secs

     total energy              =    -286.61017012 Ry
     Harris-Foulkes estimate   =    -286.61017011 Ry
     estimated scf accuracy    <          9.7E-09 Ry

     iteration # 17     ecut=    44.00 Ry     beta=0.80
     Davidson diagonalization with overlap
     ethr =  2.15E-11,  avg # of iterations =  2.0

     total cpu time spent up to now is      406.0 secs

     total energy              =    -286.61017012 Ry
     Harris-Foulkes estimate   =    -286.61017012 Ry
     estimated scf accuracy    <       0.00000002 Ry

     iteration # 18     ecut=    44.00 Ry     beta=0.80
     Davidson diagonalization with overlap
     ethr =  2.15E-11,  avg # of iterations =  1.0

     total cpu time spent up to now is      410.2 secs

     total energy              =    -286.61017011 Ry
     Harris-Foulkes estimate   =    -286.61017012 Ry
     estimated scf accuracy    <       0.00000002 Ry

     iteration # 19     ecut=    44.00 Ry     beta=0.80
     Davidson diagonalization with overlap
     ethr =  2.15E-11,  avg # of iterations =  2.2

     total cpu time spent up to now is      414.6 secs

     End of self-consistent calculation

          k = 0.0000 0.0000 0.0000 (  1365 PWs)   bands (ev):

   -46.0958 -22.4600 -22.4149 -22.4149 -22.4149  -7.2791  -6.2555  -6.2555
    -4.4874  -4.4874  -4.4874   7.2349   7.2349   7.2349   8.8826   8.8826
     8.8826   9.7472   9.7472   9.7472  11.9671  11.9671  11.9671  14.6042
    15.4263

          k = 0.0000 0.0000 0.1500 (  1414 PWs)   bands (ev):

   -46.0955 -22.5066 -22.4140 -22.4140 -22.3804  -7.2986  -6.2462  -6.2448
    -4.4746  -4.4746  -4.3034   6.8739   7.2121   7.2121   8.5311   8.5311
     8.6384   8.9708   9.5939   9.5939  12.0106  12.5682  12.5682  14.6139
    15.3484

          k = 0.0000 0.0000 0.3000 (  1426 PWs)   bands (ev):

   -46.0950 -22.5640 -22.4123 -22.4123 -22.3467  -7.4291  -6.2232  -6.0506
    -4.4485  -4.4485  -3.9996   6.1078   7.1826   7.1826   7.9257   7.9451
     7.9451   8.2183   9.4236   9.4236  12.1015  13.5449  13.5449  14.6231
    16.4027

          k = 0.0000 0.0000-0.4500 (  1422 PWs)   bands (ev):

   -46.0947 -22.5882 -22.4114 -22.4114 -22.3341  -7.5148  -6.2122  -5.8982
    -4.4352  -4.4352  -3.8702   5.6998   7.1899   7.1899   7.5447   7.6757
     7.6757   8.0313   9.3602   9.3602  13.9895  13.9895  14.6262  16.8507
    17.4009

          k = 0.0000 0.1500 0.1500 (  1418 PWs)   bands (ev):

   -46.0952 -22.5167 -22.4329 -22.4131 -22.3631  -7.2626  -6.2939  -6.2118
    -4.4609  -4.3765  -4.2489   6.6557   7.0430   7.1925   7.8336   8.2777
     8.7767   8.8721   9.2509   9.3593  12.5271  12.6610  12.8659  14.9804
    15.7962

          k = 0.0000 0.1500 0.3000 (  1414 PWs)   bands (ev):

   -46.0947 -22.5505 -22.4352 -22.4114 -22.3499  -7.2989  -6.2369  -6.1211
    -4.4333  -4.3324  -4.0371   6.0507   6.7298   7.1250   7.1684   7.7873
     8.1762   8.8407   9.0985   9.1057  12.6478  13.5566  13.6082  15.0986
    16.8065

          k = 0.0000 0.1500-0.4500 (  1430 PWs)   bands (ev):

   -46.0944 -22.5699 -22.4304 -22.4105 -22.3467  -7.3555  -6.1796  -6.0397
    -4.4194  -4.3203  -3.9361   5.6828   6.4765   6.9680   7.1830   7.5365
     7.9907   8.8440   8.9617   9.0205  12.6826  13.9914  14.0189  15.1122
    17.2410

          k = 0.0000 0.3000 0.3000 (  1424 PWs)   bands (ev):

   -46.0942 -22.5256 -22.4689 -22.4097 -22.3665  -7.0493  -6.3573  -6.1142
    -4.4027  -4.1586  -4.0748   5.7670   6.1774   6.2823   7.1456   7.4641
     8.2562   8.5654   8.6921   9.6250  13.5204  13.6241  13.9682  15.4510
    17.7808

          k = 0.0000 0.3000-0.4500 (  1430 PWs)   bands (ev):

   -46.0939 -22.5238 -22.4681 -22.4089 -22.3814  -6.9616  -6.2787  -6.2025
    -4.3873  -4.1310  -4.0305   5.6214   5.6265   6.1901   7.1626   7.2730
     8.3273   8.5056   8.5451   9.7603  13.5833  13.9969  14.2519  15.5198
    18.1911

          k = 0.0000-0.4500-0.4500 (  1452 PWs)   bands (ev):

   -46.0937 -22.4869 -22.4869 -22.4128 -22.4081  -6.6086  -6.3841  -6.3841
    -4.3712  -4.0488  -4.0488   5.3113   5.4855   5.8406   7.1472   7.1472
     8.3629   8.4934   8.4934  10.0018  14.0001  14.0001  14.4604  15.6034
    18.0398

          k = 0.1500 0.1500 0.1500 (  1436 PWs)   bands (ev):

   -46.0950 -22.5178 -22.4320 -22.4320 -22.3552  -7.1961  -6.2558  -6.2558
    -4.4101  -4.4101  -4.1658   6.4352   7.0338   7.0338   7.7425   7.7425
     8.2843   9.1585   9.1770   9.1770  12.8506  12.9412  12.9412  15.8006
    15.8006

          k = 0.1500 0.1500 0.3000 (  1424 PWs)   bands (ev):

   -46.0944 -22.5379 -22.4374 -22.4302 -22.3535  -7.1649  -6.1947  -6.1743
    -4.4832  -4.2840  -4.0525   5.9848   6.5888   6.9804   7.0838   7.2307
     8.1022   8.9666   9.0404   9.1560  12.9927  13.6489  13.6502  15.7918
    16.9730

          k = 0.1500 0.1500-0.4500 (  1434 PWs)   bands (ev):

   -46.0942 -22.5540 -22.4298 -22.4292 -22.3569  -7.1962  -6.1302  -6.0964
    -4.5234  -4.2063  -4.0205   5.6714   6.3390   6.8292   6.8824   7.1252
     8.1929   8.8155   8.9814   9.0672  13.0356  14.0410  14.0590  15.7790
    17.4319

          k = 0.1500 0.3000 0.3000 (  1435 PWs)   bands (ev):

   -46.0939 -22.5146 -22.4679 -22.4304 -22.3697  -6.9035  -6.2767  -6.0925
    -4.4996  -4.2733  -4.0754   5.7827   6.2704   6.2890   6.8211   7.0472
     7.6553   8.9290   9.0379   9.6364  13.6861  13.7595  14.0243  16.3157
    17.7619

          k = 0.1500 0.3000-0.4500 (  1436 PWs)   bands (ev):

   -46.0937 -22.5149 -22.4671 -22.4277 -22.3844  -6.8033  -6.2211  -6.1113
    -4.5285  -4.1692  -4.1584   5.6300   5.7874   6.2004   6.8097   6.8910
     7.6666   8.9525   8.9686   9.7740  13.7578  14.1082  14.3061  16.3655
    18.0954

          k = 0.1500-0.4500-0.4500 (  1428 PWs)   bands (ev):

   -46.0934 -22.4857 -22.4857 -22.4268 -22.4077  -6.4348  -6.2869  -6.2869
    -4.4786  -4.1994  -4.1994   5.4968   5.5546   5.8456   6.8156   6.8156
     7.5741   9.0024   9.0024  10.0250  14.1357  14.1357  14.5197  16.4279
    17.8505

          k = 0.3000 0.3000 0.3000 (  1436 PWs)   bands (ev):

   -46.0934 -22.4923 -22.4658 -22.4658 -22.3819  -6.5951  -6.0818  -6.0818
    -4.5358  -4.5358  -4.1938   5.7848   6.3060   6.3060   6.4158   6.5859
     6.5859   9.4548   9.4548   9.7625  14.1146  14.1490  14.1490  17.6271
    17.6271

          k = 0.3000 0.3000-0.4500 (  1426 PWs)   bands (ev):

   -46.0931 -22.4950 -22.4653 -22.4648 -22.3922  -6.4255  -6.1007  -5.9555
    -4.6958  -4.4229  -4.3607   5.6147   6.0525   6.1746   6.3258   6.4101
     6.6545   9.5215   9.6506   9.8723  14.1944  14.4016  14.4306  17.4788
    17.6928

          k = 0.3000-0.4500-0.4500 (  1428 PWs)   bands (ev):

   -46.0929 -22.4835 -22.4835 -22.4640 -22.3976  -6.0629  -6.0400  -6.0400
    -4.6829  -4.5511  -4.5511   5.4848   5.8549   6.0412   6.3079   6.4262
     6.4262   9.7599   9.7599  10.0709  14.4721  14.4721  14.6396  17.1556
    17.6091

          k =-0.4500-0.4500-0.4500 (  1472 PWs)   bands (ev):

   -46.0926 -22.4825 -22.4825 -22.4825 -22.3925  -5.8623  -5.8623  -5.8623
    -4.7803  -4.7803  -4.7803   5.3670   5.8593   5.8593   6.2848   6.2848
     6.2848  10.0936  10.0936  10.0936  14.7004  14.7004  14.7004  18.7457
    18.7457

     highest occupied, lowest unoccupied level (ev):    10.0936   11.9671

!    total energy              =    -286.61017011 Ry
     Harris-Foulkes estimate   =    -286.61017011 Ry
     estimated scf accuracy    <          4.1E-11 Ry

     The total energy is the sum of the following terms:

     one-electron contribution =     -75.38657011 Ry
     hartree contribution      =      60.13007594 Ry
[...]


     PseudoPot. # 1 for Sr read from file:
     ./pseudo/Sr.pbesol-spn-rrkjus_psl.1.0.0.UPF
     MD5 check sum: 75715fe6d3c8d996864f4ed512eac87f
     Pseudo is Ultrasoft + core correction, Zval = 10.0
     Generated using "atomic" code by A. Dal Corso  v.5.1
     Using radial grid of 1221 points,  6 beta functions with: 
                l(1) =   0
                l(2) =   0
                l(3) =   1
                l(4) =   1
                l(5) =   2
                l(6) =   2
     Q(r) pseudized with 0 coefficients 


     PseudoPot. # 2 for Ti read from file:
     ./pseudo/ti_pbesol_v1.4.uspp.F.UPF
     MD5 check sum: ebdc10ccce51265d8c030443845e563a
     Pseudo is Ultrasoft + core correction, Zval = 12.0
     Generated by new atomic code, or converted to UPF format
     Using radial grid of  851 points,  6 beta functions with: 
                l(1) =   0
                l(2) =   0
                l(3) =   1
                l(4) =   1
                l(5) =   2
                l(6) =   2
     Q(r) pseudized with  6 coefficients,  rinner =    1.000   1.000   1.000
                                                       1.000   1.000

     PseudoPot. # 3 for O  read from file:
     ./pseudo/o_pbesol_v1.2.uspp.F.UPF
     MD5 check sum: 501638753501ef6325af9037351f7734
     Pseudo is Ultrasoft + core correction, Zval =  6.0
     Generated by new atomic code, or converted to UPF format
     Using radial grid of  737 points,  5 beta functions with: 
                l(1) =   0
                l(2) =   0
                l(3) =   1
                l(4) =   1
                l(5) =   2
     Q(r) pseudized with  8 coefficients,  rinner =    0.900   0.900   0.900
                                                       0.900   0.900

     atomic species   valence    mass     pseudopotential
        Sr            10.00    87.62000     Sr( 1.00)
        Ti            12.00    47.88000     Ti( 1.00)
        O              6.00    15.99940     O ( 1.00)

     48 Sym. Ops., with inversion, found



   Cartesian axes

     site n.     atom                  positions (alat units)
         1           Sr  tau(   1) = (   0.0000000   0.0000000   0.0000000  )
         2           Ti  tau(   2) = (   0.5554731   0.5554731   0.5554731  )
         3           O   tau(   3) = (   0.5554731   0.5554731   0.0000000  )
         4           O   tau(   4) = (   0.5554731   0.0000000   0.5554731  )
         5           O   tau(   5) = (   0.0000000   0.5554731   0.5554731  )

     number of k points=    20
                       cart. coord. in units 2pi/alat
        k(    1) = (   0.0000000   0.0000000   0.0000000), wk =   0.0092593
        k(    2) = (   0.0000000   0.0000000   0.1500223), wk =   0.0555556
        k(    3) = (   0.0000000   0.0000000   0.3000446), wk =   0.0555556
        k(    4) = (   0.0000000   0.0000000  -0.4500668), wk =   0.0277778
        k(    5) = (   0.0000000   0.1500223   0.1500223), wk =   0.1111111
        k(    6) = (   0.0000000   0.1500223   0.3000446), wk =   0.2222222
        k(    7) = (   0.0000000   0.1500223  -0.4500668), wk =   0.1111111
        k(    8) = (   0.0000000   0.3000446   0.3000446), wk =   0.1111111
        k(    9) = (   0.0000000   0.3000446  -0.4500668), wk =   0.1111111
        k(   10) = (   0.0000000  -0.4500668  -0.4500668), wk =   0.0277778
        k(   11) = (   0.1500223   0.1500223   0.1500223), wk =   0.0740741
        k(   12) = (   0.1500223   0.1500223   0.3000446), wk =   0.2222222
        k(   13) = (   0.1500223   0.1500223  -0.4500668), wk =   0.1111111
        k(   14) = (   0.1500223   0.3000446   0.3000446), wk =   0.2222222
        k(   15) = (   0.1500223   0.3000446  -0.4500668), wk =   0.2222222
        k(   16) = (   0.1500223  -0.4500668  -0.4500668), wk =   0.0555556
        k(   17) = (   0.3000446   0.3000446   0.3000446), wk =   0.0740741
        k(   18) = (   0.3000446   0.3000446  -0.4500668), wk =   0.1111111
        k(   19) = (   0.3000446  -0.4500668  -0.4500668), wk =   0.0555556
        k(   20) = (  -0.4500668  -0.4500668  -0.4500668), wk =   0.0092593

     Dense  grid:    15515 G-vectors     FFT dimensions: (  32,  32,  32)

     Largest allocated arrays     est. size (Mb)     dimensions
        Kohn-Sham Wavefunctions         0.76 Mb     (    1980,   25)
        NL pseudopotentials             2.27 Mb     (    1980,   75)
        Each V/rho on FFT grid          0.50 Mb     (   32768)
        Each G-vector array             0.12 Mb     (   15515)
        G-vector shells                 0.00 Mb     (     202)
     Largest temporary arrays     est. size (Mb)     dimensions
        Auxiliary wavefunctions         3.02 Mb     (    1980,  100)
        Each subspace H/S matrix        0.15 Mb     (     100,  100)
        Each <psi_i|beta_j> matrix      0.03 Mb     (      75,   25)
        Arrays for rho mixing           4.00 Mb     (   32768,    8)

     Check: negative/imaginary core charge=   -0.000015    0.000000

     Initial potential from superposition of free atoms
     Check: negative starting charge=   -0.002543

     starting charge   38.99288, renormalised to   40.00000

     negative rho (up, down):  2.608E-03 0.000E+00
     Starting wfc are   30 randomized atomic wfcs

     Writing output data file aiida.save

     total cpu time spent up to now is      525.2 secs

     per-process dynamical memory:    32.8 Mb

     Self-consistent Calculation

     iteration #  1     ecut=    44.00 Ry     beta=0.80
     Davidson diagonalization with overlap
     ethr =  1.00E-06,  avg # of iterations = 10.3

     negative rho (up, down):  3.012E-03 0.000E+00

     total cpu time spent up to now is      535.9 secs

     total energy              =    -286.21323711 Ry
     Harris-Foulkes estimate   =    -286.81183779 Ry
     estimated scf accuracy    <       0.72414863 Ry

     iteration #  2     ecut=    44.00 Ry     beta=0.80
     Davidson diagonalization with overlap
     ethr =  1.81E-03,  avg # of iterations =  3.4

     negative rho (up, down):  2.098E-03 0.000E+00

     total cpu time spent up to now is      541.4 secs

     total energy              =    -284.52474683 Ry
     Harris-Foulkes estimate   =    -287.66219662 Ry
     estimated scf accuracy    <      13.32825330 Ry

     iteration #  3     ecut=    44.00 Ry     beta=0.80
     Davidson diagonalization with overlap
     ethr =  1.81E-03,  avg # of iterations =  5.1

     negative rho (up, down):  2.291E-03 0.000E+00

     total cpu time spent up to now is      547.8 secs

     total energy              =    -286.60110931 Ry
     Harris-Foulkes estimate   =    -286.71148857 Ry
     estimated scf accuracy    <       0.30075164 Ry

     iteration #  4     ecut=    44.00 Ry     beta=0.80
     Davidson diagonalization with overlap
     ethr =  7.52E-04,  avg # of iterations =  2.8

     negative rho (up, down):  2.403E-03 0.000E+00

     total cpu time spent up to now is      552.3 secs

     total energy              =    -286.60869532 Ry
     Harris-Foulkes estimate   =    -286.63253522 Ry
     estimated scf accuracy    <       0.10537216 Ry

     iteration #  5     ecut=    44.00 Ry     beta=0.80
     Davidson diagonalization with overlap
     ethr =  2.63E-04,  avg # of iterations =  2.8

     negative rho (up, down):  2.496E-03 0.000E+00

     total cpu time spent up to now is      556.3 secs

     total energy              =    -286.61141263 Ry
     Harris-Foulkes estimate   =    -286.61609165 Ry
     estimated scf accuracy    <       0.01909802 Ry

     iteration #  6     ecut=    44.00 Ry     beta=0.80
     Davidson diagonalization with overlap
     ethr =  4.77E-05,  avg # of iterations =  3.0

     negative rho (up, down):  2.571E-03 0.000E+00

     total cpu time spent up to now is      560.4 secs

     total energy              =    -286.61155903 Ry
     Harris-Foulkes estimate   =    -286.61268567 Ry
     estimated scf accuracy    <       0.00335978 Ry

     iteration #  7     ecut=    44.00 Ry     beta=0.80
     Davidson diagonalization with overlap
     ethr =  8.40E-06,  avg # of iterations =  6.2

     negative rho (up, down):  2.597E-03 0.000E+00

     total cpu time spent up to now is      565.8 secs

     total energy              =    -286.61192021 Ry
     Harris-Foulkes estimate   =    -286.61197380 Ry
     estimated scf accuracy    <       0.00008924 Ry

     iteration #  8     ecut=    44.00 Ry     beta=0.80
     Davidson diagonalization with overlap
     ethr =  2.23E-07,  avg # of iterations =  3.5

     negative rho (up, down):  2.591E-03 0.000E+00

     total cpu time spent up to now is      570.9 secs

     total energy              =    -286.61195571 Ry
     Harris-Foulkes estimate   =    -286.61197196 Ry
     estimated scf accuracy    <       0.00005032 Ry

     iteration #  9     ecut=    44.00 Ry     beta=0.80
     Davidson diagonalization with overlap
     ethr =  1.26E-07,  avg # of iterations =  1.7

     negative rho (up, down):  2.589E-03 0.000E+00

     total cpu time spent up to now is      574.4 secs

     total energy              =    -286.61196040 Ry
     Harris-Foulkes estimate   =    -286.61196113 Ry
     estimated scf accuracy    <       0.00000209 Ry

     iteration # 10     ecut=    44.00 Ry     beta=0.80
     Davidson diagonalization with overlap
     ethr =  5.22E-09,  avg # of iterations =  2.5

     negative rho (up, down):  2.589E-03 0.000E+00

     total cpu time spent up to now is      578.1 secs

     total energy              =    -286.61196079 Ry
     Harris-Foulkes estimate   =    -286.61196080 Ry
     estimated scf accuracy    <       0.00000001 Ry

     iteration # 11     ecut=    44.00 Ry     beta=0.80
     Davidson diagonalization with overlap
     ethr =  3.21E-11,  avg # of iterations =  3.4

     negative rho (up, down):  2.589E-03 0.000E+00

     total cpu time spent up to now is      583.0 secs

     total energy              =    -286.61196080 Ry
     Harris-Foulkes estimate   =    -286.61196080 Ry
     estimated scf accuracy    <          3.5E-09 Ry

     iteration # 12     ecut=    44.00 Ry     beta=0.80
     Davidson diagonalization with overlap
     ethr =  8.81E-12,  avg # of iterations =  2.2

     negative rho (up, down):  2.589E-03 0.000E+00

     total cpu time spent up to now is      587.0 secs

     End of self-consistent calculation

          k = 0.0000 0.0000 0.0000 (  1935 PWs)   bands (ev):

   -46.0912 -22.4539 -22.4105 -22.4105 -22.4105  -7.2770  -6.2530  -6.2530
    -4.4820  -4.4820  -4.4820   7.2364   7.2364   7.2364   8.8834   8.8834
     8.8834   9.7494   9.7494   9.7494  11.9693  11.9693  11.9693  14.6070
    14.6070

          k = 0.0000 0.0000 0.1500 (  1963 PWs)   bands (ev):

   -46.0909 -22.5014 -22.4097 -22.4097 -22.3752  -7.2965  -6.2435  -6.2423
    -4.4690  -4.4690  -4.2978   6.8759   7.2140   7.2140   8.5327   8.5327
     8.6404   8.9731   9.5960   9.5960  12.0130  12.5712  12.5712  14.6170
    15.3518

          k = 0.0000 0.0000 0.3000 (  1964 PWs)   bands (ev):

   -46.0903 -22.5592 -22.4079 -22.4079 -22.3414  -7.4269  -6.2206  -6.0477
    -4.4429  -4.4429  -3.9940   6.1091   7.1845   7.1845   7.9279   7.9467
     7.9467   8.2191   9.4260   9.4260  12.1041  13.5489  13.5489  14.6264
    16.4070

          k = 0.0000 0.0000-0.4501 (  1936 PWs)   bands (ev):

   -46.0900 -22.5836 -22.4071 -22.4071 -22.3287  -7.5126  -6.2096  -5.8951
    -4.4297  -4.4297  -3.8645   5.7012   7.1911   7.1911   7.5462   7.6773
     7.6773   8.0321   9.3628   9.3628  12.1516  13.9940  13.9940  14.6296
    16.8558

          k = 0.0000 0.1500 0.1500 (  1949 PWs)   bands (ev):

   -46.0906 -22.5115 -22.4287 -22.4088 -22.3579  -7.2604  -6.2912  -6.2092
    -4.4554  -4.3711  -4.2432   6.6573   7.0449   7.1944   7.8351   8.2792
     8.7791   8.8740   9.2531   9.3612  12.5302  12.6641  12.8691  14.9840
    15.8001

          k = 0.0000 0.1500 0.3000 (  1957 PWs)   bands (ev):

   -46.0900 -22.5458 -22.4310 -22.4071 -22.3446  -7.2966  -6.2341  -6.1183
    -4.4278  -4.3269  -4.0316   6.0517   6.7311   7.1265   7.1701   7.7883
     8.1777   8.8424   9.1004   9.1077  12.6511  13.5606  13.6120  15.1023
    16.8112

          k = 0.0000 0.1500-0.4501 (  1960 PWs)   bands (ev):

   -46.0897 -22.5653 -22.4262 -22.4062 -22.3413  -7.3533  -6.1770  -6.0366
    -4.4138  -4.3148  -3.9305   5.6841   6.4774   6.9695   7.1842   7.5379
     7.9923   8.8463   8.9637   9.0228  12.6859  13.9958  14.0231  15.1160
    17.2463

          k = 0.0000 0.3000 0.3000 (  1947 PWs)   bands (ev):

   -46.0895 -22.5209 -22.4649 -22.4054 -22.3610  -7.0469  -6.3543  -6.1114
    -4.3972  -4.1532  -4.0692   5.7679   6.1785   6.2836   7.1465   7.4649
     8.2581   8.5675   8.6942   9.6276  13.5245  13.6282  13.9719  15.4551
    17.6915

          k = 0.0000 0.3000-0.4501 (  1962 PWs)   bands (ev):

   -46.0892 -22.5194 -22.4642 -22.4046 -22.3758  -6.9592  -6.2756  -6.1996
    -4.3818  -4.1255  -4.0250   5.6220   5.6278   6.1914   7.1636   7.2741
     8.3292   8.5076   8.5470   9.7629  13.5874  14.0013  14.2560  15.5240
    18.1543

          k = 0.0000-0.4501-0.4501 (  1956 PWs)   bands (ev):

   -46.0889 -22.4830 -22.4830 -22.4066 -22.4038  -6.6062  -6.3810  -6.3810
    -4.3655  -4.0434  -4.0434   5.3117   5.4868   5.8420   7.1485   7.1485
     8.3651   8.4959   8.4959  10.0052  14.0047  14.0047  14.4646  15.6078
    18.0434

          k = 0.1500 0.1500 0.1500 (  1953 PWs)   bands (ev):

   -46.0903 -22.5127 -22.4278 -22.4278 -22.3500  -7.1937  -6.2531  -6.2531
    -4.4046  -4.4046  -4.1601   6.4368   7.0357   7.0357   7.7439   7.7439
     8.2869   9.1607   9.1796   9.1796  12.8540  12.9444  12.9444  15.8047
    15.8047

          k = 0.1500 0.1500 0.3000 (  1969 PWs)   bands (ev):

   -46.0898 -22.5332 -22.4333 -22.4260 -22.3482  -7.1626  -6.1918  -6.1715
    -4.4778  -4.2786  -4.0469   5.9858   6.5900   6.9819   7.0853   7.2320
     8.1040   8.9686   9.0425   9.1579  12.9961  13.6529  13.6541  15.7960
    16.9779

          k = 0.1500 0.1500-0.4501 (  1946 PWs)   bands (ev):

   -46.0895 -22.5495 -22.4256 -22.4250 -22.3514  -7.1939  -6.1275  -6.0933
    -4.5179  -4.2007  -4.0149   5.6729   6.3398   6.8309   6.8841   7.1268
     8.1944   8.8176   8.9836   9.0692  13.0390  14.0453  14.0634  15.7832
    17.4374

          k = 0.1500 0.3000 0.3000 (  1948 PWs)   bands (ev):

   -46.0892 -22.5100 -22.4639 -22.4262 -22.3642  -6.9010  -6.2737  -6.0896
    -4.4942  -4.2679  -4.0698   5.7838   6.2717   6.2903   6.8227   7.0486
     7.6571   8.9309   9.0402   9.6390  13.6901  13.7636  14.0283  16.3203
    17.7676

          k = 0.1500 0.3000-0.4501 (  1964 PWs)   bands (ev):

   -46.0889 -22.5105 -22.4632 -22.4236 -22.3787  -6.8008  -6.2180  -6.1084
    -4.5231  -4.1637  -4.1530   5.6312   5.7881   6.2018   6.8111   6.8924
     7.6684   8.9546   8.9708   9.7767  13.7620  14.1126  14.3103  16.3703
    18.1000

          k = 0.1500-0.4501-0.4501 (  1980 PWs)   bands (ev):

   -46.0886 -22.4819 -22.4819 -22.4227 -22.4015  -6.4322  -6.2838  -6.2838
    -4.4732  -4.1941  -4.1941   5.4981   5.5554   5.8466   6.8169   6.8169
     7.5758   9.0044   9.0044  10.0277  14.1402  14.1402  14.5240  16.4328
    17.8540

          k = 0.3000 0.3000 0.3000 (  1944 PWs)   bands (ev):

   -46.0886 -22.4879 -22.4619 -22.4619 -22.3762  -6.5923  -6.0788  -6.0788
    -4.5306  -4.5306  -4.1883   5.7861   6.3072   6.3072   6.4175   6.5875
     6.5875   9.4573   9.4573   9.7648  14.1188  14.1532  14.1532  17.6322
    17.6322

          k = 0.3000 0.3000-0.4501 (  1956 PWs)   bands (ev):

   -46.0883 -22.4910 -22.4614 -22.4608 -22.3862  -6.4226  -6.0976  -5.9525
    -4.6906  -4.4177  -4.3554   5.6160   6.0535   6.1759   6.3270   6.4117
     6.6560   9.5237   9.6529   9.8745  14.1988  14.4061  14.4351  17.4836
    17.6965

          k = 0.3000-0.4501-0.4501 (  1936 PWs)   bands (ev):

   -46.0880 -22.4797 -22.4797 -22.4601 -22.3914  -6.0599  -6.0369  -6.0369
    -4.6777  -4.5460  -4.5460   5.4863   5.8560   6.0424   6.3091   6.4279
     6.4279   9.7622   9.7622  10.0735  14.4767  14.4767  14.6442  17.1593
    17.6127

          k =-0.4501-0.4501-0.4501 (  1904 PWs)   bands (ev):

   -46.0878 -22.4786 -22.4786 -22.4786 -22.3862  -5.8591  -5.8591  -5.8591
    -4.7751  -4.7751  -4.7751   5.3692   5.8606   5.8606   6.2869   6.2869
     6.2869  10.0969  10.0969  10.0969  14.7053  14.7053  14.7053  17.0482
    17.0482

     highest occupied, lowest unoccupied level (ev):    10.0969   11.9693

!    total energy              =    -286.61196080 Ry
     Harris-Foulkes estimate   =    -286.61196080 Ry
     estimated scf accuracy    <          1.3E-11 Ry

     The total energy is the sum of the following terms:

     one-electron contribution =     -75.36088260 Ry
     hartree contribution      =      60.12264626 Ry
     xc contribution           =     -57.95351446 Ry
     ewald contribution        =    -213.42021000 Ry

     convergence has been achieved in  12 iterations

     Forces acting on atoms (Ry/au):


     negative rho (up, down):  2.589E-03 0.000E+00
     atom    1 type  1   force =     0.00000000    0.00000000    0.00000000
     atom    2 type  2   force =     0.00000000    0.00000000    0.00000000
     atom    3 type  3   force =     0.00000000    0.00000000    0.00000000
     atom    4 type  3   force =     0.00000000    0.00000000    0.00000000
     atom    5 type  3   force =     0.00000000    0.00000000    0.00000000

     Total force =     0.000000     Total SCF correction =     0.000000


     entering subroutine stress ...


     negative rho (up, down):  2.589E-03 0.000E+00
          total   stress  (Ry/bohr**3)                   (kbar)     P=    7.42
   0.00005047   0.00000000   0.00000000          7.42      0.00      0.00
   0.00000000   0.00005047   0.00000000          0.00      7.42      0.00
   0.00000000   0.00000000   0.00005047          0.00      0.00      7.42


     Writing output data file aiida.save

     init_run     :      9.87s CPU      9.12s WALL (       2 calls)
     electrons    :    523.17s CPU    449.49s WALL (       8 calls)
     update_pot   :     26.06s CPU     26.19s WALL (       6 calls)
     forces       :     24.09s CPU     22.31s WALL (       8 calls)
     stress       :     70.98s CPU     83.94s WALL (       8 calls)

     Called by init_run:
     wfcinit      :      3.47s CPU      2.55s WALL (       2 calls)
     potinit      :      0.89s CPU      0.91s WALL (       2 calls)

     Called by electrons:
     c_bands      :    440.01s CPU    368.81s WALL (     114 calls)
     sum_band     :     69.42s CPU     62.63s WALL (     114 calls)
     v_of_rho     :      4.06s CPU      4.15s WALL (     120 calls)
     newd         :      9.80s CPU     14.33s WALL (     120 calls)
     mix_rho      :      0.61s CPU      0.59s WALL (     114 calls)

     Called by c_bands:
     init_us_2    :      9.52s CPU      9.84s WALL (    4920 calls)
     cegterg      :    411.14s CPU    338.43s WALL (    2280 calls)

     Called by sum_band:
     sum_band:bec :      0.09s CPU      0.12s WALL (    2280 calls)
     addusdens    :     15.44s CPU     15.85s WALL (     114 calls)

     Called by *egterg:
     h_psi        :    257.49s CPU    214.69s WALL (    8654 calls)
     s_psi        :     34.64s CPU     12.91s WALL (    8654 calls)
     g_psi        :      3.51s CPU      3.45s WALL (    6334 calls)
     cdiaghg      :     43.08s CPU     68.30s WALL (    8454 calls)

     Called by h_psi:
     add_vuspsi   :     36.26s CPU     13.53s WALL (    8654 calls)

     General routines
     calbec       :     48.36s CPU     16.52s WALL (   11734 calls)
     fft          :      1.74s CPU      1.68s WALL (    1764 calls)
     fftw         :    207.76s CPU    208.99s WALL (  348120 calls)


     PWSCF        : 10m55.84s CPU     9m54.04s WALL


   This run was terminated on:  14:41:15  22Dec2015            

=------------------------------------------------------------------------------=
   JOB DONE.
=------------------------------------------------------------------------------=
