NEWK
2 2
1 2
66 4
67 4
END
         
 *******************************************************************************
 *                                                                             *
 *                                CRYSTAL09                                    *
 *                              public : 1.0                                   *
 *                      March 5th, 2010 - sequential executable                *
 *                                                                             *
 *                                                                             *
 *                                                                             *
 *                              MAIN AUTHORS                                   *
 *                                                                             *
 *    R. DOVESI(1,10), V.R. SAUNDERS(2), C. ROETTI(1,10), R. ORLANDO (1,3),    *
 *  C.M. ZICOVICH-WILSON(1,4), F. PASCALE(5), B. CIVALLERI(1,10), K. DOLL(6),  *
 *       N.M. HARRISON(2,7), I. J. BUSH(2), Ph. D'ARCO(8), M. LLUNELL(9)       *
 *                                                                             *
 * (1) THEORETICAL CHEMISTRY GROUP - UNIVERSITA' DI TORINO - TORINO (ITALY)    *
 *      http://www.crystal.unito.it                                            *
 * (2) COMPUTATIONAL SCIENCE & ENGINEERING DEPARTMENT - CCLRC DARESBURY (UK)   *
 *     http://www.cse.clrc.ac.uk/cmg/CRYSTAL/                                  *
 * (3) UNIVERSITA' DEL PIEMONTE ORIENTALE - ALESSANDRIA (ITALY)                *
 * (4) UNIVERSIDAD AUTONOMA DEL ESTADO DE MORELOS - CUERNAVACA (MEXICO)        *
 * (5) UNIVERSITE' HENRI POINCARE' - NANCY (FRANCE)                            *
 * (6) MPI FUER FESTKOERPERFORSCHUNG - STUTTGART (GERMANY)                     *
 * (7) IMPERIAL COLLEGE - LONDON (UK)                                          *
 * (8) UNIVERSITE' PIERRE ET MARIE CURIE - PARIS (FRANCE)                      *
 * (9) UNIVERSIDAD DE BARCELONA - BARCELONA (SPAIN)                            *
 *(10) NIS - NANOSTRUCTURED INTERFACES AND SURFACES - TORINO (ITALY)           *
 *     http://www.crystal.unito.it                                             *
 *******************************************************************************
 EEEEEEEEEE STARTING  DATE 07 01 2013 TIME 19:18:07.7

 *******************************************************************************
 model 25% Vo for comparison                                                     
 CRYSTAL - PROPERTIES - TYPE OF CALCULATION :  UNRESTRICTED OPEN SHELL
 *******************************************************************************
 SPIN POLARIZED SYSTEM: SUMMED SPIN DENSITY    0.00000000

 KOHN-SHAM HAMILTONIAN

 (EXCHANGE)[CORRELATION] FUNCTIONAL:(PERDEW-BURKE-ERNZERHOF)[PERDEW-BURKE-ERNZERHOF]


 HYBRID EXCHANGE - PERCENTAGE OF FOCK EXCHANGE    25.0000

 SPIN POLARIZED DFT SELECTED

 DIRECT LATTICE VECTOR COMPONENTS (BOHR)
        -7.39868    7.39868    7.36951
         7.39868   -7.39868    7.36951
         7.39868    7.39868   -7.36951

 LATTICE PARAMETERS  (BOHR AND DEGREES) - PRIMITIVE CELL
       A          B          C         ALPHA      BETA     GAMMA        VOLUME
   12.79806   12.79806   12.79806    109.3647  109.3647  109.6845    1613.63884
 *******************************************************************************
 N. OF ATOMS PER CELL       20  COULOMB OVERLAP TOL         (T1) 10** -7
 NUMBER OF SHELLS          148  COULOMB PENETRATION TOL     (T2) 10** -7
 NUMBER OF AO              456  EXCHANGE OVERLAP TOL        (T3) 10** -7
 N. OF ELECTRONS PER CELL  176  EXCHANGE PSEUDO OVP (F(G))  (T4) 10** -7
 CORE ELECTRONS PER CELL    22  EXCHANGE PSEUDO OVP (P(G))  (T5) 10**-14
 N. OF SYMMETRY OPERATORS    8  POLE ORDER IN MONO ZONE                4
 CORE  PSEUDO POTENTIAL         TOL. ON PSEUDO              (TP) 10**- 6
 *******************************************************************************
   ATOM N.AT.  SHELL    X(A)      Y(A)      Z(A)      EXAD       N.ELECT.
 *******************************************************************************
    1    0 XX    5     0.000     0.000     0.054   1.481E-01       0.655
    2    8 O     5     0.000     0.000     3.898   1.481E-01       9.553
    3    8 O     5     0.000     3.915    -0.004   1.481E-01       9.479
    4    8 O     5     3.915     0.000    -0.004   1.481E-01       9.479
    5    8 O     5     1.963    -3.915     2.039   1.481E-01       9.524
    6    8 O     5    -1.951     0.000     1.855   1.481E-01       9.521
    7    8 O     5     1.951     0.000     1.855   1.481E-01       9.521
    8    8 O     5     1.952     0.000    -1.861   1.481E-01       9.524
    9    8 O     5    -3.915     1.963     2.039   1.481E-01       9.524
   10    8 O     5     0.000    -1.951     1.855   1.481E-01       9.521
   11    8 O     5     0.000     1.952    -1.861   1.481E-01       9.524
   12    8 O     5     0.000     1.951     1.855   1.481E-01       9.521
   13  222 TI   16     0.000     0.000    -1.904   2.936E-01       9.769
   14  222 TI   16     0.000     0.000     1.886   2.936E-01       9.769
   15  222 TI   16     0.000     3.915    -1.952   2.936E-01       9.658
   16  222 TI   16     3.915     0.000    -1.952   2.936E-01       9.658
   17  238 SR    6     1.916     1.916    -3.899   2.757E-01       7.950
   18  238 SR    6     1.999     1.999     0.000   2.757E-01       7.950
   19  238 SR    6    -1.999     1.999     0.000   2.757E-01       7.950
   20  238 SR    6     1.999    -1.999     0.000   2.757E-01       7.950
 *******************************************************************************
 DE(K)                   0.000E+00  ENERGY LEVEL SHIFTING        0.10000
 TOTAL ENERGY -1.1831947720081E+03  CONVERGENCE ON ENER       -9.427E-10
 KIN. ENERGY   9.5835002933182E+02  VIR. COEFF.           9.42284776E-01
 N. OF SCF CYCLES               49  FERMI ENERGY              -0.110E+01
 WEIGHT OF F(I) IN F(I+1)      55
 SHRINK. FACT.(MONKH.)     6  6  6  SHRINKING FACTOR(GILAT NET)       12
 NUMBER OF K POINTS IN THE IBZ  30  CELL VOLUME (A.U.)        1618.54819
 *******************************************************************************

 GCALCO - MAX INDICES DIRECT LATTICE VECTOR    14    14    14
 NO.OF VECTORS CREATED 6999 STARS  122 RMAX   139.55548 BOHR

 DIMENSIONS  P(G)=  999384 F(G)=  167752 P(G),F(G) (IRR)  101213
 MAX G-VECTOR INDEX FOR 1- AND 2-ELECTRON INTEGRALS 113


 CAPPA:IS1  6;IS2  6;IS3  6; K PTS MONK NET   30; SYMMOPS: K SPACE 16;G SPACE  8


 CAPPA:IS1  2;IS2  2;IS3  2; K PTS MONK NET    4; SYMMOPS: K SPACE 16;G SPACE  8

 *******************************************************************************
 RESTART WITH NEW K POINTS NET
 *******************************************************************************
 POINTS IN THE IBZ                   4 POINTS(GILAT NET)                 4
 SHRINK FACTORS(MONK.)         2  2  2 SHRINK FACTOR(GILAT)              2
 *******************************************************************************
 *** K POINTS COORDINATES (OBLIQUE COORDINATES IN UNITS OF IS =  2)
   1-R(  0  0  0)   2-R(  1  0  0)   3-R(  1  1  0)   4-R(  1  1  1)

    ALPHA      ELECTRONS

 EIGENVALUES - K=   1 (  0  0  0)
 -1.9053E+01 -1.9053E+01 -1.9053E+01 -1.9053E+01 -1.9053E+01 -1.9053E+01 -1.9053E+01 -1.9053E+01 -1.9052E+01 -1.9052E+01
 -1.9041E+01 -2.3951E+00 -2.3951E+00 -2.3707E+00 -2.3546E+00 -1.4566E+00 -1.4554E+00 -1.4554E+00 -1.4547E+00 -1.4547E+00
 -1.4540E+00 -1.4513E+00 -1.4491E+00 -1.4491E+00 -1.4490E+00 -1.4343E+00 -1.4343E+00 -1.4285E+00 -1.4223E+00 -1.4223E+00
 -1.4010E+00 -8.4744E-01 -8.2438E-01 -8.2389E-01 -8.1891E-01 -8.1678E-01 -8.1440E-01 -8.1440E-01 -8.1404E-01 -8.1404E-01
 -8.0916E-01 -8.0908E-01 -7.3849E-01 -7.3849E-01 -7.3818E-01 -7.3454E-01 -7.3425E-01 -7.3400E-01 -7.3101E-01 -7.2398E-01
 -7.2343E-01 -7.2343E-01 -7.2314E-01 -7.2314E-01 -3.3736E-01 -3.3598E-01 -3.3270E-01 -3.2718E-01 -3.2370E-01 -3.2370E-01
 -3.2004E-01 -3.1772E-01 -2.7624E-01 -2.6258E-01 -2.6258E-01 -2.5534E-01 -2.5499E-01 -2.5334E-01 -2.5334E-01 -2.4674E-01
 -2.3515E-01 -2.3515E-01 -2.2375E-01 -2.1988E-01 -2.1988E-01 -2.1211E-01 -2.1211E-01 -2.1202E-01 -2.0268E-01 -2.0268E-01
 -1.9347E-01 -1.7624E-01 -1.7300E-01 -1.7300E-01 -1.5085E-01 -1.5085E-01 -1.4915E-01 -4.4163E-02  4.5633E-03  8.6912E-03
  8.6912E-03  6.6121E-02  6.6121E-02  7.2555E-02  9.1220E-02  9.1220E-02  9.1388E-02  9.3070E-02  9.6745E-02  1.0658E-01
  1.0658E-01  1.1088E-01  1.1328E-01  1.4157E-01  1.7294E-01  2.0496E-01  2.2608E-01  2.4316E-01  2.5761E-01  2.6136E-01
  3.0032E-01  3.0966E-01  3.0966E-01  3.8441E-01  3.8441E-01  3.9059E-01  3.9389E-01  3.9389E-01  4.0426E-01  4.1872E-01
  4.2413E-01  4.2413E-01  4.2905E-01  4.3794E-01  4.5093E-01  4.6752E-01  4.8179E-01  4.9346E-01  4.9346E-01  4.9849E-01
  4.9849E-01  5.0698E-01  5.0698E-01  5.1762E-01  5.2256E-01  5.2256E-01  5.2568E-01  5.2582E-01  5.2941E-01  5.6781E-01
  5.7179E-01  5.8329E-01  5.8426E-01  5.9980E-01  5.9980E-01  6.0813E-01  6.0813E-01  6.4091E-01  6.5075E-01  6.5075E-01
  6.7090E-01  7.0028E-01  7.0325E-01  7.6363E-01  7.8111E-01  7.8145E-01  8.0079E-01  8.1112E-01  8.1672E-01  8.1672E-01
  8.1945E-01  8.1945E-01  8.5497E-01  8.5642E-01  8.5642E-01  8.8425E-01  8.8706E-01  8.9219E-01  9.0121E-01  9.0287E-01
  9.0287E-01  9.0975E-01  9.0975E-01  9.3709E-01  9.7068E-01  9.9495E-01  1.0556E+00  1.0556E+00  1.1280E+00  1.1335E+00
  1.1476E+00  1.1476E+00  1.2088E+00  1.2259E+00  1.2299E+00  1.2299E+00  1.2471E+00  1.2476E+00  1.2498E+00  1.2498E+00
  1.2534E+00  1.2534E+00  1.2565E+00  1.2585E+00  1.2585E+00  1.2748E+00  1.2748E+00  1.3029E+00  1.3309E+00  1.3553E+00
  1.3553E+00  1.3862E+00  1.3911E+00  1.4037E+00  1.4070E+00  1.4264E+00  1.4606E+00  1.4606E+00  1.4889E+00  1.4889E+00
  1.4969E+00  1.5126E+00  1.5322E+00  1.5583E+00  1.5583E+00  1.5743E+00  1.5859E+00  1.5859E+00  1.5936E+00  1.6086E+00
  1.6216E+00  1.6216E+00  1.6274E+00  1.6413E+00  1.6697E+00  1.6702E+00  1.6749E+00  1.6755E+00  1.6755E+00  1.6870E+00
  1.6893E+00  1.6947E+00  1.7246E+00  1.7246E+00  1.7403E+00  1.7403E+00  1.7405E+00  1.7588E+00  1.8076E+00  1.8250E+00
  1.8275E+00  1.8275E+00  1.8326E+00  1.8362E+00  1.8396E+00  1.8396E+00  1.8481E+00  1.8481E+00  1.8857E+00  1.9393E+00
  1.9752E+00  2.0420E+00  2.0468E+00  2.0468E+00  2.0681E+00  2.2510E+00  2.2510E+00  2.2522E+00  2.2522E+00  2.2596E+00
  2.3091E+00  2.3282E+00  2.3623E+00  2.5696E+00  2.8605E+00  2.8856E+00  2.8923E+00  2.9586E+00  2.9586E+00  3.0024E+00
  3.1117E+00  3.8660E+00  3.8793E+00  3.8793E+00  3.8838E+00  3.8869E+00  3.8869E+00  3.8910E+00  3.9351E+00  3.9351E+00
  4.0320E+00  4.0534E+00  4.0698E+00  4.1667E+00  4.1775E+00  4.1775E+00  4.1820E+00  4.2262E+00  4.5414E+00  4.5730E+00
  4.5879E+00  4.7784E+00  4.7889E+00  4.7889E+00  4.8487E+00  4.8487E+00  4.8693E+00  4.9144E+00  4.9844E+00  4.9868E+00
  4.9895E+00  4.9895E+00  5.1882E+00  5.1882E+00  5.1905E+00  5.2020E+00  5.2435E+00  5.2435E+00  5.2700E+00  5.2711E+00
  5.2987E+00  5.2987E+00  5.3030E+00  5.3243E+00  5.3243E+00  5.3422E+00  5.3422E+00  5.3471E+00  5.4162E+00  5.5214E+00
  5.5214E+00  5.5820E+00  5.6662E+00  5.6879E+00  5.7131E+00  5.7131E+00  5.7267E+00  5.9045E+00  5.9158E+00  5.9158E+00
  5.9215E+00  5.9251E+00  5.9251E+00  5.9516E+00  5.9516E+00  5.9552E+00  1.2868E+01  1.2868E+01  1.2890E+01  1.3103E+01
  1.3103E+01  1.3140E+01  1.3145E+01  1.3145E+01  1.3146E+01  1.3153E+01  1.3164E+01  1.3164E+01  1.3305E+01  1.3305E+01
  1.3454E+01  1.3581E+01  1.3584E+01  1.3584E+01  1.3626E+01  1.3647E+01  1.3647E+01  1.3655E+01  1.3691E+01  1.3691E+01
  1.3706E+01  1.3731E+01  1.3735E+01  1.3778E+01  1.3789E+01  1.3789E+01  1.3816E+01  1.3827E+01  1.4045E+01  1.4055E+01
  1.4064E+01  1.7047E+01  1.7114E+01  1.7124E+01  1.7160E+01  1.8217E+01  2.0578E+01  2.0578E+01  2.0586E+01  2.0646E+01
  2.0646E+01  2.0668E+01  2.0768E+01  2.0774E+01  2.0774E+01  2.0788E+01  2.0788E+01  2.0812E+01  4.3991E+01  4.4797E+01
  4.4800E+01  4.4800E+01  4.9850E+01  5.0066E+01  5.0068E+01  5.0094E+01  5.0119E+01  5.0127E+01  5.0130E+01  5.0130E+01
  5.0131E+01  5.0131E+01  5.0148E+01  5.8234E+01  5.8234E+01  5.8239E+01  5.8251E+01  5.8269E+01  5.8269E+01  5.8290E+01
  5.8290E+01  5.8290E+01  5.8299E+01  5.8313E+01  5.8327E+01  5.8348E+01  5.8357E+01  5.8357E+01  5.8362E+01  5.8364E+01
  5.8494E+01  5.8505E+01  5.8506E+01  6.7045E+01  6.7086E+01  6.7118E+01  6.7139E+01  6.9956E+01  6.9956E+01  6.9958E+01
  7.0007E+01  7.0007E+01  7.0023E+01  7.0115E+01  7.0127E+01  7.0127E+01  7.0136E+01  7.0136E+01  7.0152E+01  1.3962E+02
  3.2640E+02  3.2640E+02  3.2640E+02  3.2646E+02  3.2646E+02  3.2647E+02  3.2659E+02  3.2660E+02  3.2660E+02  3.2661E+02
  3.2661E+02  3.2662E+02  6.3180E+02  6.3194E+02  6.3197E+02  6.3202E+02

 EIGENVALUES - K=   2 (  1  0  0)
 -1.9053E+01 -1.9053E+01 -1.9053E+01 -1.9053E+01 -1.9053E+01 -1.9053E+01 -1.9053E+01 -1.9053E+01 -1.9052E+01 -1.9052E+01
 -1.9041E+01 -2.3951E+00 -2.3951E+00 -2.3707E+00 -2.3546E+00 -1.4561E+00 -1.4559E+00 -1.4557E+00 -1.4553E+00 -1.4551E+00
 -1.4549E+00 -1.4496E+00 -1.4494E+00 -1.4488E+00 -1.4487E+00 -1.4342E+00 -1.4341E+00 -1.4283E+00 -1.4223E+00 -1.4223E+00
 -1.4009E+00 -8.4472E-01 -8.4450E-01 -8.3128E-01 -8.2614E-01 -8.1119E-01 -8.1067E-01 -8.0704E-01 -8.0692E-01 -8.0548E-01
 -8.0547E-01 -7.9886E-01 -7.4330E-01 -7.4192E-01 -7.3740E-01 -7.3685E-01 -7.3619E-01 -7.3120E-01 -7.2935E-01 -7.2897E-01
 -7.2690E-01 -7.2644E-01 -7.2560E-01 -7.2385E-01 -3.2827E-01 -3.2679E-01 -3.0514E-01 -3.0483E-01 -2.9993E-01 -2.9588E-01
 -2.9328E-01 -2.8704E-01 -2.8425E-01 -2.8274E-01 -2.8094E-01 -2.8075E-01 -2.7422E-01 -2.7108E-01 -2.6789E-01 -2.5995E-01
 -2.5427E-01 -2.5379E-01 -2.3439E-01 -2.2748E-01 -2.2200E-01 -2.1380E-01 -2.0961E-01 -2.0444E-01 -2.0198E-01 -1.9272E-01
 -1.8395E-01 -1.8031E-01 -1.7790E-01 -1.7631E-01 -1.7279E-01 -1.7058E-01 -1.6921E-01 -1.6499E-02  2.6951E-02  4.3627E-02
  4.6265E-02  5.1132E-02  5.5377E-02  5.9896E-02  6.1223E-02  8.2269E-02  8.9619E-02  9.0536E-02  9.3810E-02  1.0012E-01
  1.0629E-01  1.1992E-01  1.2928E-01  1.6870E-01  1.7255E-01  2.1371E-01  2.2439E-01  2.5230E-01  2.6287E-01  2.6385E-01
  2.9148E-01  3.0291E-01  3.1087E-01  3.1539E-01  3.1776E-01  3.4326E-01  3.4939E-01  3.6069E-01  3.7229E-01  3.7967E-01
  4.0468E-01  4.2501E-01  4.3890E-01  4.4354E-01  4.4756E-01  4.6726E-01  4.7038E-01  4.7061E-01  4.7511E-01  4.8462E-01
  4.9132E-01  5.0448E-01  5.1974E-01  5.2054E-01  5.2756E-01  5.2913E-01  5.4394E-01  5.4992E-01  5.6491E-01  5.7115E-01
  5.8740E-01  5.9109E-01  5.9503E-01  5.9995E-01  6.1314E-01  6.2582E-01  6.2947E-01  6.3163E-01  6.4194E-01  6.4547E-01
  6.6107E-01  6.9561E-01  7.2475E-01  7.2744E-01  7.3754E-01  7.4774E-01  7.5019E-01  7.6431E-01  7.6869E-01  7.7044E-01
  7.7674E-01  7.7951E-01  7.9494E-01  8.0226E-01  8.3170E-01  8.4027E-01  8.4843E-01  8.5419E-01  8.8030E-01  9.0029E-01
  9.0063E-01  9.2856E-01  9.3570E-01  9.6535E-01  1.0136E+00  1.0391E+00  1.0526E+00  1.0818E+00  1.0903E+00  1.1064E+00
  1.1142E+00  1.1306E+00  1.1403E+00  1.1499E+00  1.1549E+00  1.1861E+00  1.1975E+00  1.2290E+00  1.2435E+00  1.2452E+00
  1.2571E+00  1.2581E+00  1.2720E+00  1.2953E+00  1.3062E+00  1.3147E+00  1.3311E+00  1.3595E+00  1.3642E+00  1.3686E+00
  1.3863E+00  1.3972E+00  1.4221E+00  1.4367E+00  1.4460E+00  1.4539E+00  1.4548E+00  1.4602E+00  1.4630E+00  1.4781E+00
  1.4783E+00  1.4870E+00  1.5089E+00  1.5090E+00  1.5163E+00  1.5239E+00  1.5309E+00  1.5547E+00  1.5570E+00  1.5779E+00
  1.5799E+00  1.5931E+00  1.6038E+00  1.6248E+00  1.6370E+00  1.6407E+00  1.6425E+00  1.6488E+00  1.6757E+00  1.6986E+00
  1.7002E+00  1.7030E+00  1.7042E+00  1.7112E+00  1.7138E+00  1.7228E+00  1.7237E+00  1.7516E+00  1.8164E+00  1.8353E+00
  1.8368E+00  1.8449E+00  1.8490E+00  1.8622E+00  1.8793E+00  1.8878E+00  1.9057E+00  1.9063E+00  1.9129E+00  1.9287E+00
  1.9589E+00  1.9904E+00  2.0019E+00  2.0278E+00  2.1281E+00  2.1338E+00  2.1364E+00  2.1372E+00  2.1481E+00  2.1514E+00
  2.2152E+00  2.2202E+00  2.2412E+00  2.5954E+00  2.8749E+00  2.9365E+00  2.9510E+00  2.9944E+00  3.0044E+00  3.0257E+00
  3.1257E+00  3.8530E+00  3.8583E+00  3.8897E+00  3.9025E+00  3.9330E+00  3.9376E+00  3.9500E+00  3.9600E+00  3.9747E+00
  3.9904E+00  4.0468E+00  4.0693E+00  4.0777E+00  4.0831E+00  4.1485E+00  4.1653E+00  4.1976E+00  4.2472E+00  4.3165E+00
  4.3528E+00  4.8729E+00  4.8801E+00  4.8866E+00  4.9338E+00  4.9442E+00  4.9636E+00  5.0462E+00  5.0880E+00  5.0993E+00
  5.1252E+00  5.1356E+00  5.1477E+00  5.1551E+00  5.1596E+00  5.1600E+00  5.1634E+00  5.1747E+00  5.2028E+00  5.2113E+00
  5.2165E+00  5.2274E+00  5.2401E+00  5.2460E+00  5.2534E+00  5.2663E+00  5.2779E+00  5.3753E+00  5.4289E+00  5.4308E+00
  5.4584E+00  5.5320E+00  5.5405E+00  5.5720E+00  5.7901E+00  5.7991E+00  5.8032E+00  5.8078E+00  5.8537E+00  5.8560E+00
  5.8612E+00  5.9044E+00  5.9213E+00  5.9421E+00  6.0550E+00  6.0699E+00  1.2955E+01  1.2977E+01  1.2987E+01  1.3015E+01
  1.3067E+01  1.3072E+01  1.3090E+01  1.3109E+01  1.3135E+01  1.3143E+01  1.3162E+01  1.3184E+01  1.3286E+01  1.3353E+01
  1.3454E+01  1.3571E+01  1.3579E+01  1.3604E+01  1.3619E+01  1.3650E+01  1.3651E+01  1.3666E+01  1.3671E+01  1.3692E+01
  1.3706E+01  1.3726E+01  1.3742E+01  1.3746E+01  1.3756E+01  1.3785E+01  1.3798E+01  1.3824E+01  1.3875E+01  1.3915E+01
  1.3950E+01  1.7140E+01  1.7157E+01  1.7204E+01  1.7226E+01  1.8231E+01  2.0617E+01  2.0620E+01  2.0622E+01  2.0634E+01
  2.0655E+01  2.0656E+01  2.0670E+01  2.0678E+01  2.0766E+01  2.0784E+01  2.0818E+01  2.0838E+01  4.4180E+01  4.4339E+01
  4.4499E+01  4.4536E+01  4.9983E+01  4.9991E+01  5.0076E+01  5.0088E+01  5.0123E+01  5.0126E+01  5.0134E+01  5.0148E+01
  5.0175E+01  5.0177E+01  5.0196E+01  5.8230E+01  5.8232E+01  5.8240E+01  5.8243E+01  5.8256E+01  5.8260E+01  5.8287E+01
  5.8293E+01  5.8304E+01  5.8308E+01  5.8322E+01  5.8323E+01  5.8326E+01  5.8329E+01  5.8345E+01  5.8352E+01  5.8368E+01
  5.8405E+01  5.8429E+01  5.8446E+01  6.7105E+01  6.7121E+01  6.7169E+01  6.7185E+01  6.9982E+01  6.9987E+01  6.9987E+01
  7.0001E+01  7.0016E+01  7.0027E+01  7.0027E+01  7.0043E+01  7.0113E+01  7.0129E+01  7.0156E+01  7.0170E+01  1.3962E+02
  3.2643E+02  3.2643E+02  3.2644E+02  3.2645E+02  3.2646E+02  3.2647E+02  3.2648E+02  3.2650E+02  3.2658E+02  3.2660E+02
  3.2663E+02  3.2665E+02  6.3199E+02  6.3203E+02  6.3210E+02  6.3213E+02

 EIGENVALUES - K=   3 (  1  1  0)
 -1.9053E+01 -1.9053E+01 -1.9053E+01 -1.9053E+01 -1.9053E+01 -1.9053E+01 -1.9053E+01 -1.9053E+01 -1.9052E+01 -1.9052E+01
 -1.9041E+01 -2.3951E+00 -2.3951E+00 -2.3707E+00 -2.3546E+00 -1.4572E+00 -1.4566E+00 -1.4553E+00 -1.4548E+00 -1.4546E+00
 -1.4540E+00 -1.4506E+00 -1.4492E+00 -1.4486E+00 -1.4485E+00 -1.4344E+00 -1.4340E+00 -1.4284E+00 -1.4224E+00 -1.4222E+00
 -1.4009E+00 -8.4727E-01 -8.3330E-01 -8.3226E-01 -8.3129E-01 -8.1380E-01 -8.1352E-01 -8.0703E-01 -8.0569E-01 -8.0350E-01
 -8.0281E-01 -8.0241E-01 -7.4292E-01 -7.4233E-01 -7.3635E-01 -7.3617E-01 -7.3488E-01 -7.3143E-01 -7.3071E-01 -7.2822E-01
 -7.2817E-01 -7.2776E-01 -7.2563E-01 -7.2422E-01 -3.3265E-01 -3.1142E-01 -3.0553E-01 -3.0021E-01 -2.9424E-01 -2.9273E-01
 -2.9150E-01 -2.8264E-01 -2.8044E-01 -2.8001E-01 -2.7929E-01 -2.7747E-01 -2.7561E-01 -2.6685E-01 -2.6635E-01 -2.6356E-01
 -2.6123E-01 -2.5721E-01 -2.5694E-01 -2.2889E-01 -2.2666E-01 -2.2594E-01 -2.1505E-01 -2.0204E-01 -1.8729E-01 -1.8553E-01
 -1.8263E-01 -1.8207E-01 -1.8186E-01 -1.8079E-01 -1.7687E-01 -1.7544E-01 -1.6610E-01 -4.7329E-02  2.9233E-02  3.7617E-02
  5.4329E-02  5.9655E-02  6.6430E-02  7.0244E-02  7.3837E-02  7.9194E-02  8.1688E-02  8.3153E-02  8.5609E-02  8.6960E-02
  1.0968E-01  1.4291E-01  1.6758E-01  1.6836E-01  1.8868E-01  1.9810E-01  2.1162E-01  2.2069E-01  2.5937E-01  2.7253E-01
  3.0353E-01  3.0509E-01  3.1067E-01  3.1204E-01  3.1335E-01  3.5314E-01  3.6750E-01  3.6990E-01  3.7983E-01  3.8866E-01
  4.0571E-01  4.1048E-01  4.2246E-01  4.3426E-01  4.4999E-01  4.5710E-01  4.6565E-01  4.7403E-01  4.7782E-01  4.7973E-01
  4.8326E-01  4.9309E-01  5.0808E-01  5.1167E-01  5.2190E-01  5.4422E-01  5.4579E-01  5.5175E-01  5.5934E-01  5.6913E-01
  5.6990E-01  5.8690E-01  6.0810E-01  6.1126E-01  6.1895E-01  6.2656E-01  6.3339E-01  6.3625E-01  6.4650E-01  6.5354E-01
  6.5695E-01  6.9582E-01  7.0455E-01  7.2599E-01  7.3721E-01  7.3987E-01  7.4938E-01  7.5821E-01  7.6043E-01  7.6242E-01
  7.7579E-01  7.8064E-01  7.9839E-01  8.0515E-01  8.2375E-01  8.4969E-01  8.6894E-01  8.8995E-01  8.9545E-01  9.0849E-01
  9.2314E-01  9.3760E-01  9.4809E-01  9.5796E-01  9.8680E-01  1.0435E+00  1.0631E+00  1.0673E+00  1.0703E+00  1.0873E+00
  1.0914E+00  1.1182E+00  1.1264E+00  1.1426E+00  1.1708E+00  1.1860E+00  1.2250E+00  1.2317E+00  1.2420E+00  1.2493E+00
  1.2645E+00  1.2667E+00  1.2691E+00  1.2961E+00  1.3119E+00  1.3492E+00  1.3545E+00  1.3634E+00  1.3698E+00  1.3786E+00
  1.4006E+00  1.4044E+00  1.4055E+00  1.4098E+00  1.4286E+00  1.4389E+00  1.4504E+00  1.4574E+00  1.4718E+00  1.4817E+00
  1.4832E+00  1.4888E+00  1.4912E+00  1.4951E+00  1.5001E+00  1.5008E+00  1.5111E+00  1.5152E+00  1.5695E+00  1.5707E+00
  1.5838E+00  1.5853E+00  1.6227E+00  1.6251E+00  1.6333E+00  1.6433E+00  1.6446E+00  1.6527E+00  1.6906E+00  1.6910E+00
  1.6992E+00  1.7173E+00  1.7264E+00  1.7283E+00  1.7311E+00  1.7440E+00  1.7476E+00  1.7586E+00  1.7880E+00  1.8228E+00
  1.8430E+00  1.8433E+00  1.8460E+00  1.8462E+00  1.8552E+00  1.9057E+00  1.9075E+00  1.9088E+00  1.9172E+00  1.9607E+00
  1.9704E+00  1.9777E+00  1.9811E+00  1.9829E+00  2.1202E+00  2.1470E+00  2.1601E+00  2.1749E+00  2.1815E+00  2.1848E+00
  2.1993E+00  2.2414E+00  2.2454E+00  2.5473E+00  2.8633E+00  2.9017E+00  2.9187E+00  2.9886E+00  3.0475E+00  3.0900E+00
  3.1639E+00  3.8486E+00  3.8813E+00  3.8874E+00  3.9047E+00  3.9211E+00  3.9377E+00  3.9418E+00  3.9640E+00  3.9714E+00
  3.9969E+00  4.0387E+00  4.0685E+00  4.0834E+00  4.1382E+00  4.1452E+00  4.1775E+00  4.1865E+00  4.2207E+00  4.3299E+00
  4.3458E+00  4.8679E+00  4.8743E+00  4.8789E+00  4.8802E+00  4.8882E+00  4.9824E+00  5.0496E+00  5.0767E+00  5.0785E+00
  5.0975E+00  5.1250E+00  5.1431E+00  5.1585E+00  5.1664E+00  5.1755E+00  5.1808E+00  5.1926E+00  5.1969E+00  5.2301E+00
  5.2411E+00  5.2416E+00  5.2437E+00  5.2471E+00  5.2497E+00  5.2665E+00  5.2734E+00  5.3810E+00  5.3887E+00  5.4387E+00
  5.4839E+00  5.5292E+00  5.5508E+00  5.5850E+00  5.7797E+00  5.7978E+00  5.8112E+00  5.8173E+00  5.8384E+00  5.8590E+00
  5.8702E+00  5.8752E+00  5.9103E+00  5.9431E+00  6.0471E+00  6.0840E+00  1.2926E+01  1.2973E+01  1.3002E+01  1.3018E+01
  1.3084E+01  1.3103E+01  1.3113E+01  1.3118E+01  1.3120E+01  1.3136E+01  1.3137E+01  1.3179E+01  1.3327E+01  1.3327E+01
  1.3480E+01  1.3558E+01  1.3597E+01  1.3611E+01  1.3623E+01  1.3630E+01  1.3648E+01  1.3657E+01  1.3675E+01  1.3688E+01
  1.3708E+01  1.3719E+01  1.3747E+01  1.3750E+01  1.3781E+01  1.3782E+01  1.3815E+01  1.3818E+01  1.3859E+01  1.3914E+01
  1.3950E+01  1.7134E+01  1.7172E+01  1.7199E+01  1.7216E+01  1.8235E+01  2.0602E+01  2.0619E+01  2.0638E+01  2.0640E+01
  2.0647E+01  2.0654E+01  2.0686E+01  2.0703E+01  2.0745E+01  2.0789E+01  2.0791E+01  2.0834E+01  4.4239E+01  4.4247E+01
  4.4526E+01  4.4537E+01  4.9975E+01  5.0023E+01  5.0072E+01  5.0074E+01  5.0125E+01  5.0127E+01  5.0130E+01  5.0155E+01
  5.0166E+01  5.0190E+01  5.0191E+01  5.8217E+01  5.8236E+01  5.8244E+01  5.8246E+01  5.8265E+01  5.8277E+01  5.8279E+01
  5.8287E+01  5.8291E+01  5.8295E+01  5.8316E+01  5.8326E+01  5.8335E+01  5.8338E+01  5.8345E+01  5.8358E+01  5.8381E+01
  5.8403E+01  5.8416E+01  5.8446E+01  6.7097E+01  6.7139E+01  6.7155E+01  6.7204E+01  6.9972E+01  6.9982E+01  6.9999E+01
  7.0005E+01  7.0013E+01  7.0019E+01  7.0049E+01  7.0058E+01  7.0093E+01  7.0130E+01  7.0138E+01  7.0174E+01  1.3962E+02
  3.2642E+02  3.2643E+02  3.2644E+02  3.2646E+02  3.2646E+02  3.2647E+02  3.2649E+02  3.2651E+02  3.2656E+02  3.2660E+02
  3.2661E+02  3.2665E+02  6.3199E+02  6.3203E+02  6.3210E+02  6.3217E+02

 EIGENVALUES - K=   4 (  1  1  1)
 -1.9053E+01 -1.9053E+01 -1.9053E+01 -1.9053E+01 -1.9053E+01 -1.9053E+01 -1.9053E+01 -1.9053E+01 -1.9052E+01 -1.9052E+01
 -1.9041E+01 -2.3952E+00 -2.3950E+00 -2.3707E+00 -2.3546E+00 -1.4578E+00 -1.4568E+00 -1.4568E+00 -1.4549E+00 -1.4549E+00
 -1.4540E+00 -1.4492E+00 -1.4488E+00 -1.4488E+00 -1.4480E+00 -1.4340E+00 -1.4340E+00 -1.4282E+00 -1.4221E+00 -1.4221E+00
 -1.4008E+00 -8.5850E-01 -8.5723E-01 -8.4549E-01 -8.1048E-01 -8.0974E-01 -7.9938E-01 -7.9791E-01 -7.9791E-01 -7.9621E-01
 -7.9580E-01 -7.9580E-01 -7.4837E-01 -7.4781E-01 -7.4781E-01 -7.3689E-01 -7.3661E-01 -7.3646E-01 -7.3646E-01 -7.3624E-01
 -7.3624E-01 -7.1773E-01 -7.1699E-01 -7.1651E-01 -3.4145E-01 -3.2677E-01 -3.2481E-01 -3.2439E-01 -3.1720E-01 -3.0158E-01
 -2.9524E-01 -2.9524E-01 -2.7620E-01 -2.5992E-01 -2.5992E-01 -2.5948E-01 -2.5947E-01 -2.5584E-01 -2.5584E-01 -2.4202E-01
 -2.4168E-01 -2.4016E-01 -2.4016E-01 -2.3838E-01 -2.3838E-01 -2.2427E-01 -2.2427E-01 -2.1860E-01 -2.1079E-01 -1.9728E-01
 -1.9728E-01 -1.7430E-01 -1.7430E-01 -1.7321E-01 -1.5550E-01 -1.5550E-01 -1.4831E-01 -4.7941E-02  8.8864E-03  1.3041E-02
  1.3041E-02  6.4272E-02  6.4272E-02  7.1579E-02  8.6731E-02  9.0510E-02  9.0510E-02  9.2033E-02  9.2268E-02  1.0906E-01
  1.0906E-01  1.1684E-01  1.1686E-01  1.3697E-01  1.9222E-01  2.1495E-01  2.3023E-01  2.5551E-01  2.5551E-01  2.6100E-01
  2.8416E-01  3.0358E-01  3.0358E-01  3.1153E-01  3.1873E-01  3.2323E-01  3.2323E-01  3.2743E-01  3.3011E-01  3.7143E-01
  4.0986E-01  4.1074E-01  4.1772E-01  4.4405E-01  4.4713E-01  4.4713E-01  4.7382E-01  5.1176E-01  5.2176E-01  5.2489E-01
  5.2489E-01  5.4637E-01  5.4637E-01  5.5355E-01  5.6812E-01  5.7343E-01  5.7343E-01  5.7462E-01  5.7462E-01  5.8043E-01
  5.8285E-01  5.9917E-01  6.0757E-01  6.1747E-01  6.1960E-01  6.4600E-01  6.5559E-01  6.5559E-01  6.6903E-01  6.7306E-01
  6.9365E-01  6.9365E-01  6.9860E-01  7.4275E-01  7.4340E-01  7.4340E-01  7.5999E-01  7.6160E-01  7.6263E-01  7.6263E-01
  7.6274E-01  7.9189E-01  7.9189E-01  7.9758E-01  8.1043E-01  8.2562E-01  8.2562E-01  8.2952E-01  9.0392E-01  9.0392E-01
  9.0525E-01  9.6783E-01  9.6930E-01  9.6930E-01  9.7758E-01  1.0534E+00  1.1175E+00  1.1175E+00  1.1450E+00  1.1600E+00
  1.1600E+00  1.1806E+00  1.1806E+00  1.1836E+00  1.1838E+00  1.2090E+00  1.2305E+00  1.2305E+00  1.2383E+00  1.2465E+00
  1.2467E+00  1.2467E+00  1.2771E+00  1.2771E+00  1.2840E+00  1.2840E+00  1.3093E+00  1.3316E+00  1.3419E+00  1.3518E+00
  1.3609E+00  1.3707E+00  1.3707E+00  1.4062E+00  1.4118E+00  1.4118E+00  1.4206E+00  1.4385E+00  1.4790E+00  1.4807E+00
  1.4807E+00  1.4931E+00  1.4931E+00  1.4977E+00  1.4991E+00  1.5304E+00  1.5372E+00  1.5869E+00  1.6102E+00  1.6102E+00
  1.6746E+00  1.6746E+00  1.6751E+00  1.6831E+00  1.6861E+00  1.7157E+00  1.7158E+00  1.7158E+00  1.7161E+00  1.7183E+00
  1.7206E+00  1.7279E+00  1.7279E+00  1.7626E+00  1.7730E+00  1.7730E+00  1.7922E+00  1.8264E+00  1.8264E+00  1.8341E+00
  1.8341E+00  1.8347E+00  1.8365E+00  1.8436E+00  1.8436E+00  1.8656E+00  1.8701E+00  1.8701E+00  1.8792E+00  1.9154E+00
  1.9946E+00  1.9946E+00  2.0184E+00  2.0529E+00  2.0873E+00  2.1162E+00  2.2170E+00  2.2395E+00  2.2589E+00  2.2589E+00
  2.3079E+00  2.3564E+00  2.4864E+00  2.5147E+00  2.8621E+00  2.9346E+00  2.9346E+00  2.9974E+00  3.1271E+00  3.1719E+00
  3.1926E+00  3.8071E+00  3.8130E+00  3.8130E+00  3.9852E+00  4.0047E+00  4.0047E+00  4.0096E+00  4.0267E+00  4.0267E+00
  4.1390E+00  4.1491E+00  4.1643E+00  4.1731E+00  4.1737E+00  4.1737E+00  4.2603E+00  4.2687E+00  4.2798E+00  4.5882E+00
  4.6002E+00  4.8061E+00  4.8176E+00  4.8176E+00  4.8408E+00  4.8684E+00  4.8684E+00  4.9006E+00  4.9130E+00  4.9305E+00
  4.9305E+00  5.0195E+00  5.0906E+00  5.0906E+00  5.2250E+00  5.2250E+00  5.2341E+00  5.2858E+00  5.2984E+00  5.2984E+00
  5.3144E+00  5.3262E+00  5.3262E+00  5.3322E+00  5.3362E+00  5.3497E+00  5.3502E+00  5.3502E+00  5.3546E+00  5.3546E+00
  5.3582E+00  5.3687E+00  5.3836E+00  5.3920E+00  5.6438E+00  5.6438E+00  5.6594E+00  5.7747E+00  5.7747E+00  5.7755E+00
  5.7906E+00  5.7906E+00  5.7936E+00  6.0514E+00  6.0514E+00  6.0523E+00  1.2972E+01  1.2972E+01  1.3046E+01  1.3117E+01
  1.3123E+01  1.3123E+01  1.3123E+01  1.3123E+01  1.3163E+01  1.3163E+01  1.3165E+01  1.3168E+01  1.3335E+01  1.3335E+01
  1.3407E+01  1.3543E+01  1.3551E+01  1.3551E+01  1.3687E+01  1.3705E+01  1.3705E+01  1.3721E+01  1.3731E+01  1.3731E+01
  1.3780E+01  1.3783E+01  1.3788E+01  1.3793E+01  1.3793E+01  1.3798E+01  1.3871E+01  1.3894E+01  1.3904E+01  1.4063E+01
  1.4072E+01  1.6762E+01  1.7347E+01  1.7359E+01  1.7376E+01  1.8287E+01  2.0519E+01  2.0519E+01  2.0528E+01  2.0596E+01
  2.0600E+01  2.0600E+01  2.0614E+01  2.0614E+01  2.0644E+01  2.0875E+01  2.0875E+01  2.0880E+01  4.3864E+01  4.3864E+01
  4.3878E+01  4.4714E+01  5.0023E+01  5.0029E+01  5.0056E+01  5.0056E+01  5.0057E+01  5.0096E+01  5.0139E+01  5.0139E+01
  5.0244E+01  5.0315E+01  5.0317E+01  5.8216E+01  5.8217E+01  5.8217E+01  5.8279E+01  5.8294E+01  5.8294E+01  5.8311E+01
  5.8311E+01  5.8320E+01  5.8340E+01  5.8347E+01  5.8348E+01  5.8349E+01  5.8360E+01  5.8360E+01  5.8387E+01  5.8408E+01
  5.8425E+01  5.8508E+01  5.8510E+01  6.6772E+01  6.7275E+01  6.7292E+01  6.7322E+01  6.9905E+01  6.9905E+01  6.9910E+01
  6.9965E+01  6.9975E+01  6.9975E+01  6.9985E+01  6.9985E+01  7.0007E+01  7.0208E+01  7.0209E+01  7.0209E+01  1.3963E+02
  3.2634E+02  3.2634E+02  3.2634E+02  3.2641E+02  3.2642E+02  3.2642E+02  3.2643E+02  3.2643E+02  3.2645E+02  3.2669E+02
  3.2669E+02  3.2669E+02  6.3116E+02  6.3239E+02  6.3240E+02  6.3245E+02

    BETA       ELECTRONS

 EIGENVALUES - K=   1 (  0  0  0)
 -1.9053E+01 -1.9053E+01 -1.9053E+01 -1.9053E+01 -1.9052E+01 -1.9052E+01 -1.9052E+01 -1.9052E+01 -1.9052E+01 -1.9052E+01
 -1.9041E+01 -2.3950E+00 -2.3950E+00 -2.3694E+00 -2.3563E+00 -1.4565E+00 -1.4553E+00 -1.4553E+00 -1.4546E+00 -1.4546E+00
 -1.4539E+00 -1.4513E+00 -1.4491E+00 -1.4491E+00 -1.4490E+00 -1.4332E+00 -1.4332E+00 -1.4270E+00 -1.4238E+00 -1.4238E+00
 -1.4033E+00 -8.4743E-01 -8.2437E-01 -8.2389E-01 -8.1890E-01 -8.1678E-01 -8.1451E-01 -8.1451E-01 -8.1392E-01 -8.1392E-01
 -8.0914E-01 -8.0910E-01 -7.3848E-01 -7.3848E-01 -7.3818E-01 -7.3453E-01 -7.3425E-01 -7.3400E-01 -7.3101E-01 -7.2398E-01
 -7.2346E-01 -7.2346E-01 -7.2310E-01 -7.2310E-01 -3.3735E-01 -3.3595E-01 -3.3270E-01 -3.2723E-01 -3.2366E-01 -3.2366E-01
 -3.2001E-01 -3.1776E-01 -2.7630E-01 -2.6258E-01 -2.6258E-01 -2.5536E-01 -2.5498E-01 -2.5330E-01 -2.5330E-01 -2.4666E-01
 -2.3513E-01 -2.3513E-01 -2.2380E-01 -2.1987E-01 -2.1987E-01 -2.1211E-01 -2.1211E-01 -2.1201E-01 -2.0267E-01 -2.0267E-01
 -1.9345E-01 -1.7622E-01 -1.7299E-01 -1.7299E-01 -1.5085E-01 -1.5085E-01 -1.4914E-01 -4.5386E-02  4.5839E-03  8.8676E-03
  8.8676E-03  6.6259E-02  6.6259E-02  7.2598E-02  9.1381E-02  9.1381E-02  9.1403E-02  9.3173E-02  9.6831E-02  1.0648E-01
  1.0648E-01  1.1092E-01  1.1293E-01  1.4145E-01  1.7343E-01  2.0398E-01  2.2609E-01  2.4281E-01  2.5805E-01  2.6075E-01
  3.0060E-01  3.0998E-01  3.0998E-01  3.8443E-01  3.8443E-01  3.9059E-01  3.9391E-01  3.9391E-01  4.0427E-01  4.1850E-01
  4.2413E-01  4.2413E-01  4.2902E-01  4.3836E-01  4.5092E-01  4.6757E-01  4.8177E-01  4.9347E-01  4.9347E-01  4.9864E-01
  4.9864E-01  5.0707E-01  5.0707E-01  5.1767E-01  5.2272E-01  5.2272E-01  5.2563E-01  5.2570E-01  5.2961E-01  5.6755E-01
  5.7181E-01  5.8386E-01  5.8423E-01  6.0012E-01  6.0012E-01  6.0771E-01  6.0771E-01  6.4092E-01  6.5079E-01  6.5079E-01
  6.7079E-01  7.0031E-01  7.0327E-01  7.6365E-01  7.8121E-01  7.8144E-01  8.0082E-01  8.1110E-01  8.1712E-01  8.1712E-01
  8.1913E-01  8.1913E-01  8.5501E-01  8.5644E-01  8.5644E-01  8.8425E-01  8.8706E-01  8.9225E-01  9.0130E-01  9.0307E-01
  9.0307E-01  9.0953E-01  9.0953E-01  9.3697E-01  9.7071E-01  9.9493E-01  1.0556E+00  1.0556E+00  1.1280E+00  1.1336E+00
  1.1476E+00  1.1476E+00  1.2089E+00  1.2259E+00  1.2300E+00  1.2300E+00  1.2471E+00  1.2475E+00  1.2501E+00  1.2501E+00
  1.2546E+00  1.2546E+00  1.2568E+00  1.2572E+00  1.2572E+00  1.2748E+00  1.2748E+00  1.3029E+00  1.3308E+00  1.3553E+00
  1.3553E+00  1.3865E+00  1.3902E+00  1.4037E+00  1.4068E+00  1.4265E+00  1.4585E+00  1.4585E+00  1.4911E+00  1.4911E+00
  1.4968E+00  1.5130E+00  1.5322E+00  1.5584E+00  1.5584E+00  1.5743E+00  1.5860E+00  1.5860E+00  1.5934E+00  1.6087E+00
  1.6215E+00  1.6215E+00  1.6274E+00  1.6413E+00  1.6701E+00  1.6702E+00  1.6748E+00  1.6755E+00  1.6755E+00  1.6870E+00
  1.6894E+00  1.6946E+00  1.7247E+00  1.7247E+00  1.7404E+00  1.7404E+00  1.7405E+00  1.7588E+00  1.8085E+00  1.8249E+00
  1.8274E+00  1.8274E+00  1.8326E+00  1.8361E+00  1.8401E+00  1.8401E+00  1.8477E+00  1.8477E+00  1.8862E+00  1.9390E+00
  1.9752E+00  2.0420E+00  2.0469E+00  2.0469E+00  2.0665E+00  2.2505E+00  2.2505E+00  2.2527E+00  2.2527E+00  2.2596E+00
  2.3090E+00  2.3283E+00  2.3572E+00  2.5694E+00  2.8617E+00  2.8858E+00  2.8924E+00  2.9553E+00  2.9553E+00  2.9974E+00
  3.1112E+00  3.8660E+00  3.8795E+00  3.8795E+00  3.8842E+00  3.8874E+00  3.8874E+00  3.8906E+00  3.9347E+00  3.9347E+00
  4.0309E+00  4.0535E+00  4.0702E+00  4.1665E+00  4.1774E+00  4.1774E+00  4.1818E+00  4.2263E+00  4.5403E+00  4.5729E+00
  4.5879E+00  4.7784E+00  4.7889E+00  4.7889E+00  4.8486E+00  4.8486E+00  4.8692E+00  4.9144E+00  4.9843E+00  4.9868E+00
  4.9895E+00  4.9895E+00  5.1882E+00  5.1882E+00  5.1904E+00  5.2020E+00  5.2435E+00  5.2435E+00  5.2700E+00  5.2710E+00
  5.2987E+00  5.2987E+00  5.3030E+00  5.3243E+00  5.3243E+00  5.3422E+00  5.3422E+00  5.3471E+00  5.4164E+00  5.5214E+00
  5.5214E+00  5.5820E+00  5.6662E+00  5.6879E+00  5.7133E+00  5.7133E+00  5.7270E+00  5.9091E+00  5.9158E+00  5.9158E+00
  5.9216E+00  5.9263E+00  5.9263E+00  5.9500E+00  5.9501E+00  5.9501E+00  1.2868E+01  1.2868E+01  1.2890E+01  1.3102E+01
  1.3102E+01  1.3140E+01  1.3145E+01  1.3145E+01  1.3146E+01  1.3153E+01  1.3164E+01  1.3164E+01  1.3302E+01  1.3302E+01
  1.3450E+01  1.3582E+01  1.3584E+01  1.3584E+01  1.3626E+01  1.3647E+01  1.3647E+01  1.3655E+01  1.3691E+01  1.3691E+01
  1.3711E+01  1.3731E+01  1.3732E+01  1.3777E+01  1.3789E+01  1.3789E+01  1.3815E+01  1.3826E+01  1.4045E+01  1.4054E+01
  1.4062E+01  1.7047E+01  1.7114E+01  1.7127E+01  1.7156E+01  1.8216E+01  2.0579E+01  2.0579E+01  2.0586E+01  2.0646E+01
  2.0646E+01  2.0671E+01  2.0768E+01  2.0777E+01  2.0777E+01  2.0785E+01  2.0785E+01  2.0808E+01  4.3991E+01  4.4797E+01
  4.4800E+01  4.4800E+01  4.9850E+01  5.0066E+01  5.0068E+01  5.0094E+01  5.0119E+01  5.0127E+01  5.0130E+01  5.0130E+01
  5.0132E+01  5.0132E+01  5.0148E+01  5.8234E+01  5.8234E+01  5.8239E+01  5.8251E+01  5.8269E+01  5.8269E+01  5.8290E+01
  5.8290E+01  5.8290E+01  5.8300E+01  5.8312E+01  5.8327E+01  5.8348E+01  5.8357E+01  5.8357E+01  5.8362E+01  5.8364E+01
  5.8494E+01  5.8504E+01  5.8504E+01  6.7045E+01  6.7086E+01  6.7126E+01  6.7131E+01  6.9956E+01  6.9956E+01  6.9959E+01
  7.0007E+01  7.0007E+01  7.0026E+01  7.0115E+01  7.0129E+01  7.0129E+01  7.0134E+01  7.0134E+01  7.0148E+01  1.3960E+02
  3.2640E+02  3.2640E+02  3.2640E+02  3.2646E+02  3.2646E+02  3.2648E+02  3.2659E+02  3.2660E+02  3.2660E+02  3.2661E+02
  3.2661E+02  3.2662E+02  6.3180E+02  6.3194E+02  6.3199E+02  6.3201E+02

 EIGENVALUES - K=   2 (  1  0  0)
 -1.9053E+01 -1.9053E+01 -1.9053E+01 -1.9053E+01 -1.9052E+01 -1.9052E+01 -1.9052E+01 -1.9052E+01 -1.9052E+01 -1.9052E+01
 -1.9041E+01 -2.3950E+00 -2.3950E+00 -2.3694E+00 -2.3563E+00 -1.4560E+00 -1.4558E+00 -1.4556E+00 -1.4552E+00 -1.4551E+00
 -1.4548E+00 -1.4495E+00 -1.4494E+00 -1.4488E+00 -1.4487E+00 -1.4331E+00 -1.4330E+00 -1.4269E+00 -1.4238E+00 -1.4237E+00
 -1.4032E+00 -8.4476E-01 -8.4445E-01 -8.3128E-01 -8.2613E-01 -8.1121E-01 -8.1064E-01 -8.0706E-01 -8.0696E-01 -8.0544E-01
 -8.0543E-01 -7.9887E-01 -7.4330E-01 -7.4192E-01 -7.3740E-01 -7.3685E-01 -7.3619E-01 -7.3120E-01 -7.2935E-01 -7.2897E-01
 -7.2690E-01 -7.2644E-01 -7.2560E-01 -7.2385E-01 -3.2811E-01 -3.2695E-01 -3.0512E-01 -3.0481E-01 -2.9993E-01 -2.9587E-01
 -2.9326E-01 -2.8703E-01 -2.8420E-01 -2.8279E-01 -2.8094E-01 -2.8068E-01 -2.7395E-01 -2.7137E-01 -2.6793E-01 -2.5995E-01
 -2.5426E-01 -2.5376E-01 -2.3438E-01 -2.2747E-01 -2.2191E-01 -2.1384E-01 -2.0960E-01 -2.0448E-01 -2.0194E-01 -1.9270E-01
 -1.8395E-01 -1.8029E-01 -1.7789E-01 -1.7632E-01 -1.7278E-01 -1.7057E-01 -1.6921E-01 -1.7755E-02  2.7156E-02  4.4016E-02
  4.5939E-02  5.1261E-02  5.5016E-02  5.9950E-02  6.1375E-02  8.3218E-02  8.9414E-02  9.0810E-02  9.4464E-02  9.9210E-02
  1.0606E-01  1.1984E-01  1.2937E-01  1.6875E-01  1.7256E-01  2.1371E-01  2.2403E-01  2.5170E-01  2.6310E-01  2.6408E-01
  2.9152E-01  3.0295E-01  3.1089E-01  3.1539E-01  3.1777E-01  3.4333E-01  3.4939E-01  3.6081E-01  3.7222E-01  3.7973E-01
  4.0468E-01  4.2503E-01  4.3896E-01  4.4392E-01  4.4760E-01  4.6725E-01  4.7063E-01  4.7117E-01  4.7468E-01  4.8465E-01
  4.9130E-01  5.0436E-01  5.1976E-01  5.2057E-01  5.2757E-01  5.2918E-01  5.4403E-01  5.4993E-01  5.6491E-01  5.7120E-01
  5.8738E-01  5.9119E-01  5.9501E-01  6.0001E-01  6.1319E-01  6.2577E-01  6.2946E-01  6.3161E-01  6.4202E-01  6.4548E-01
  6.6110E-01  6.9561E-01  7.2473E-01  7.2742E-01  7.3754E-01  7.4775E-01  7.5032E-01  7.6420E-01  7.6871E-01  7.7038E-01
  7.7685E-01  7.7957E-01  7.9522E-01  8.0204E-01  8.3176E-01  8.4029E-01  8.4848E-01  8.5419E-01  8.8023E-01  9.0024E-01
  9.0064E-01  9.2851E-01  9.3570E-01  9.6482E-01  1.0138E+00  1.0394E+00  1.0524E+00  1.0818E+00  1.0904E+00  1.1064E+00
  1.1143E+00  1.1308E+00  1.1404E+00  1.1499E+00  1.1544E+00  1.1862E+00  1.1975E+00  1.2291E+00  1.2437E+00  1.2449E+00
  1.2571E+00  1.2581E+00  1.2720E+00  1.2954E+00  1.3062E+00  1.3148E+00  1.3311E+00  1.3596E+00  1.3640E+00  1.3681E+00
  1.3863E+00  1.3972E+00  1.4221E+00  1.4366E+00  1.4459E+00  1.4536E+00  1.4551E+00  1.4597E+00  1.4629E+00  1.4777E+00
  1.4793E+00  1.4872E+00  1.5089E+00  1.5092E+00  1.5163E+00  1.5243E+00  1.5305E+00  1.5549E+00  1.5570E+00  1.5776E+00
  1.5801E+00  1.5930E+00  1.6039E+00  1.6249E+00  1.6370E+00  1.6407E+00  1.6425E+00  1.6489E+00  1.6759E+00  1.6987E+00
  1.7000E+00  1.7029E+00  1.7042E+00  1.7114E+00  1.7143E+00  1.7226E+00  1.7238E+00  1.7517E+00  1.8164E+00  1.8344E+00
  1.8377E+00  1.8441E+00  1.8494E+00  1.8624E+00  1.8796E+00  1.8878E+00  1.9061E+00  1.9063E+00  1.9129E+00  1.9287E+00
  1.9589E+00  1.9910E+00  2.0082E+00  2.0225E+00  2.1283E+00  2.1333E+00  2.1365E+00  2.1373E+00  2.1480E+00  2.1515E+00
  2.2151E+00  2.2200E+00  2.2412E+00  2.5924E+00  2.8748E+00  2.9350E+00  2.9504E+00  2.9962E+00  3.0009E+00  3.0193E+00
  3.1257E+00  3.8541E+00  3.8574E+00  3.8898E+00  3.9032E+00  3.9335E+00  3.9382E+00  3.9495E+00  3.9592E+00  3.9755E+00
  3.9895E+00  4.0476E+00  4.0684E+00  4.0778E+00  4.0831E+00  4.1494E+00  4.1648E+00  4.1976E+00  4.2472E+00  4.3167E+00
  4.3516E+00  4.8729E+00  4.8800E+00  4.8866E+00  4.9338E+00  4.9441E+00  4.9636E+00  5.0461E+00  5.0881E+00  5.0991E+00
  5.1252E+00  5.1356E+00  5.1477E+00  5.1551E+00  5.1595E+00  5.1599E+00  5.1635E+00  5.1747E+00  5.2028E+00  5.2113E+00
  5.2165E+00  5.2274E+00  5.2401E+00  5.2460E+00  5.2534E+00  5.2663E+00  5.2778E+00  5.3754E+00  5.4292E+00  5.4305E+00
  5.4584E+00  5.5321E+00  5.5405E+00  5.5720E+00  5.7932E+00  5.7993E+00  5.8009E+00  5.8078E+00  5.8542E+00  5.8576E+00
  5.8606E+00  5.9036E+00  5.9235E+00  5.9386E+00  6.0578E+00  6.0665E+00  1.2954E+01  1.2977E+01  1.2986E+01  1.3015E+01
  1.3067E+01  1.3072E+01  1.3090E+01  1.3109E+01  1.3135E+01  1.3143E+01  1.3162E+01  1.3184E+01  1.3282E+01  1.3349E+01
  1.3449E+01  1.3572E+01  1.3578E+01  1.3604E+01  1.3619E+01  1.3650E+01  1.3652E+01  1.3666E+01  1.3670E+01  1.3693E+01
  1.3705E+01  1.3727E+01  1.3745E+01  1.3746E+01  1.3754E+01  1.3790E+01  1.3799E+01  1.3827E+01  1.3867E+01  1.3917E+01
  1.3945E+01  1.7142E+01  1.7156E+01  1.7205E+01  1.7222E+01  1.8230E+01  2.0617E+01  2.0622E+01  2.0622E+01  2.0632E+01
  2.0657E+01  2.0658E+01  2.0669E+01  2.0675E+01  2.0771E+01  2.0779E+01  2.0821E+01  2.0833E+01  4.4180E+01  4.4339E+01
  4.4499E+01  4.4536E+01  4.9983E+01  4.9991E+01  5.0076E+01  5.0088E+01  5.0123E+01  5.0126E+01  5.0134E+01  5.0148E+01
  5.0175E+01  5.0177E+01  5.0196E+01  5.8230E+01  5.8232E+01  5.8240E+01  5.8243E+01  5.8256E+01  5.8260E+01  5.8285E+01
  5.8294E+01  5.8306E+01  5.8306E+01  5.8323E+01  5.8323E+01  5.8326E+01  5.8328E+01  5.8345E+01  5.8352E+01  5.8371E+01
  5.8400E+01  5.8430E+01  5.8444E+01  6.7105E+01  6.7121E+01  6.7177E+01  6.7177E+01  6.9983E+01  6.9986E+01  6.9989E+01
  6.9999E+01  7.0017E+01  7.0026E+01  7.0029E+01  7.0041E+01  7.0118E+01  7.0125E+01  7.0159E+01  7.0164E+01  1.3960E+02
  3.2643E+02  3.2644E+02  3.2644E+02  3.2645E+02  3.2646E+02  3.2647E+02  3.2648E+02  3.2650E+02  3.2659E+02  3.2660E+02
  3.2663E+02  3.2664E+02  6.3199E+02  6.3203E+02  6.3211E+02  6.3212E+02

 EIGENVALUES - K=   3 (  1  1  0)
 -1.9053E+01 -1.9053E+01 -1.9053E+01 -1.9053E+01 -1.9052E+01 -1.9052E+01 -1.9052E+01 -1.9052E+01 -1.9052E+01 -1.9052E+01
 -1.9041E+01 -2.3950E+00 -2.3950E+00 -2.3695E+00 -2.3563E+00 -1.4571E+00 -1.4565E+00 -1.4552E+00 -1.4548E+00 -1.4546E+00
 -1.4539E+00 -1.4506E+00 -1.4492E+00 -1.4486E+00 -1.4485E+00 -1.4333E+00 -1.4330E+00 -1.4269E+00 -1.4239E+00 -1.4237E+00
 -1.4032E+00 -8.4726E-01 -8.3333E-01 -8.3223E-01 -8.3129E-01 -8.1379E-01 -8.1352E-01 -8.0704E-01 -8.0568E-01 -8.0348E-01
 -8.0278E-01 -8.0242E-01 -7.4292E-01 -7.4233E-01 -7.3634E-01 -7.3617E-01 -7.3488E-01 -7.3143E-01 -7.3071E-01 -7.2822E-01
 -7.2818E-01 -7.2774E-01 -7.2563E-01 -7.2422E-01 -3.3264E-01 -3.1135E-01 -3.0553E-01 -3.0021E-01 -2.9424E-01 -2.9268E-01
 -2.9150E-01 -2.8263E-01 -2.8043E-01 -2.8005E-01 -2.7927E-01 -2.7744E-01 -2.7568E-01 -2.6690E-01 -2.6633E-01 -2.6349E-01
 -2.6127E-01 -2.5725E-01 -2.5692E-01 -2.2884E-01 -2.2665E-01 -2.2584E-01 -2.1502E-01 -2.0203E-01 -1.8728E-01 -1.8556E-01
 -1.8264E-01 -1.8210E-01 -1.8184E-01 -1.8081E-01 -1.7687E-01 -1.7541E-01 -1.6607E-01 -4.8145E-02  2.9335E-02  3.7834E-02
  5.4391E-02  5.9702E-02  6.6666E-02  7.0780E-02  7.4697E-02  7.8562E-02  8.1347E-02  8.2266E-02  8.5835E-02  8.6752E-02
  1.0970E-01  1.4314E-01  1.6761E-01  1.6839E-01  1.8990E-01  1.9658E-01  2.1082E-01  2.2071E-01  2.5953E-01  2.7268E-01
  3.0351E-01  3.0516E-01  3.1067E-01  3.1205E-01  3.1336E-01  3.5316E-01  3.6751E-01  3.7020E-01  3.7985E-01  3.8855E-01
  4.0583E-01  4.1061E-01  4.2249E-01  4.3437E-01  4.5002E-01  4.5715E-01  4.6588E-01  4.7403E-01  4.7786E-01  4.7934E-01
  4.8366E-01  4.9314E-01  5.0802E-01  5.1190E-01  5.2200E-01  5.4422E-01  5.4581E-01  5.5174E-01  5.5931E-01  5.6918E-01
  5.6996E-01  5.8693E-01  6.0810E-01  6.1129E-01  6.1897E-01  6.2658E-01  6.3341E-01  6.3623E-01  6.4640E-01  6.5361E-01
  6.5698E-01  6.9586E-01  7.0465E-01  7.2599E-01  7.3725E-01  7.3988E-01  7.4915E-01  7.5825E-01  7.6037E-01  7.6252E-01
  7.7584E-01  7.8088E-01  7.9839E-01  8.0506E-01  8.2380E-01  8.4981E-01  8.6896E-01  8.8989E-01  8.9547E-01  9.0841E-01
  9.2276E-01  9.3762E-01  9.4813E-01  9.5836E-01  9.8685E-01  1.0436E+00  1.0631E+00  1.0673E+00  1.0701E+00  1.0874E+00
  1.0915E+00  1.1182E+00  1.1264E+00  1.1431E+00  1.1703E+00  1.1861E+00  1.2250E+00  1.2317E+00  1.2420E+00  1.2495E+00
  1.2656E+00  1.2657E+00  1.2690E+00  1.2956E+00  1.3127E+00  1.3492E+00  1.3545E+00  1.3634E+00  1.3690E+00  1.3785E+00
  1.4006E+00  1.4043E+00  1.4055E+00  1.4101E+00  1.4287E+00  1.4389E+00  1.4501E+00  1.4577E+00  1.4717E+00  1.4817E+00
  1.4832E+00  1.4888E+00  1.4908E+00  1.4951E+00  1.4988E+00  1.5000E+00  1.5138E+00  1.5152E+00  1.5695E+00  1.5708E+00
  1.5839E+00  1.5854E+00  1.6227E+00  1.6246E+00  1.6332E+00  1.6433E+00  1.6445E+00  1.6536E+00  1.6905E+00  1.6911E+00
  1.6992E+00  1.7175E+00  1.7264E+00  1.7283E+00  1.7311E+00  1.7440E+00  1.7475E+00  1.7594E+00  1.7877E+00  1.8228E+00
  1.8429E+00  1.8435E+00  1.8459E+00  1.8462E+00  1.8554E+00  1.9058E+00  1.9075E+00  1.9089E+00  1.9173E+00  1.9608E+00
  1.9704E+00  1.9777E+00  1.9798E+00  1.9828E+00  2.1203E+00  2.1470E+00  2.1601E+00  2.1795E+00  2.1816E+00  2.1848E+00
  2.1892E+00  2.2414E+00  2.2453E+00  2.5471E+00  2.8647E+00  2.9017E+00  2.9166E+00  2.9852E+00  3.0462E+00  3.0844E+00
  3.1647E+00  3.8485E+00  3.8813E+00  3.8878E+00  3.9050E+00  3.9212E+00  3.9378E+00  3.9412E+00  3.9640E+00  3.9719E+00
  3.9966E+00  4.0390E+00  4.0681E+00  4.0835E+00  4.1353E+00  4.1453E+00  4.1780E+00  4.1865E+00  4.2199E+00  4.3299E+00
  4.3480E+00  4.8679E+00  4.8744E+00  4.8788E+00  4.8801E+00  4.8881E+00  4.9824E+00  5.0496E+00  5.0767E+00  5.0792E+00
  5.0958E+00  5.1250E+00  5.1436E+00  5.1585E+00  5.1664E+00  5.1755E+00  5.1807E+00  5.1926E+00  5.1969E+00  5.2301E+00
  5.2411E+00  5.2415E+00  5.2438E+00  5.2471E+00  5.2497E+00  5.2665E+00  5.2734E+00  5.3809E+00  5.3887E+00  5.4387E+00
  5.4839E+00  5.5292E+00  5.5508E+00  5.5850E+00  5.7798E+00  5.7980E+00  5.8114E+00  5.8317E+00  5.8385E+00  5.8442E+00
  5.8703E+00  5.8758E+00  5.9103E+00  5.9422E+00  6.0471E+00  6.0837E+00  1.2925E+01  1.2973E+01  1.3002E+01  1.3018E+01
  1.3083E+01  1.3103E+01  1.3113E+01  1.3118E+01  1.3119E+01  1.3136E+01  1.3137E+01  1.3179E+01  1.3322E+01  1.3324E+01
  1.3478E+01  1.3559E+01  1.3597E+01  1.3611E+01  1.3623E+01  1.3631E+01  1.3649E+01  1.3655E+01  1.3675E+01  1.3688E+01
  1.3708E+01  1.3719E+01  1.3747E+01  1.3750E+01  1.3779E+01  1.3781E+01  1.3816E+01  1.3818E+01  1.3857E+01  1.3914E+01
  1.3949E+01  1.7134E+01  1.7178E+01  1.7199E+01  1.7209E+01  1.8233E+01  2.0602E+01  2.0619E+01  2.0640E+01  2.0640E+01
  2.0647E+01  2.0673E+01  2.0682E+01  2.0686E+01  2.0745E+01  2.0788E+01  2.0791E+01  2.0833E+01  4.4239E+01  4.4247E+01
  4.4526E+01  4.4537E+01  4.9975E+01  5.0023E+01  5.0072E+01  5.0074E+01  5.0125E+01  5.0127E+01  5.0130E+01  5.0155E+01
  5.0166E+01  5.0190E+01  5.0191E+01  5.8217E+01  5.8236E+01  5.8244E+01  5.8246E+01  5.8264E+01  5.8277E+01  5.8279E+01
  5.8286E+01  5.8290E+01  5.8295E+01  5.8316E+01  5.8326E+01  5.8335E+01  5.8338E+01  5.8345E+01  5.8358E+01  5.8381E+01
  5.8402E+01  5.8416E+01  5.8444E+01  6.7097E+01  6.7142E+01  6.7155E+01  6.7201E+01  6.9972E+01  6.9982E+01  7.0000E+01
  7.0005E+01  7.0019E+01  7.0027E+01  7.0042E+01  7.0049E+01  7.0093E+01  7.0130E+01  7.0138E+01  7.0174E+01  1.3960E+02
  3.2642E+02  3.2643E+02  3.2644E+02  3.2646E+02  3.2647E+02  3.2648E+02  3.2649E+02  3.2650E+02  3.2656E+02  3.2660E+02
  3.2661E+02  3.2665E+02  6.3199E+02  6.3204E+02  6.3210E+02  6.3216E+02

 EIGENVALUES - K=   4 (  1  1  1)
 -1.9053E+01 -1.9053E+01 -1.9053E+01 -1.9053E+01 -1.9052E+01 -1.9052E+01 -1.9052E+01 -1.9052E+01 -1.9052E+01 -1.9052E+01
 -1.9041E+01 -2.3951E+00 -2.3950E+00 -2.3695E+00 -2.3564E+00 -1.4577E+00 -1.4567E+00 -1.4567E+00 -1.4548E+00 -1.4548E+00
 -1.4538E+00 -1.4491E+00 -1.4488E+00 -1.4488E+00 -1.4480E+00 -1.4329E+00 -1.4329E+00 -1.4268E+00 -1.4236E+00 -1.4236E+00
 -1.4031E+00 -8.5849E-01 -8.5722E-01 -8.4548E-01 -8.1054E-01 -8.0966E-01 -7.9938E-01 -7.9794E-01 -7.9794E-01 -7.9621E-01
 -7.9576E-01 -7.9576E-01 -7.4836E-01 -7.4781E-01 -7.4781E-01 -7.3689E-01 -7.3661E-01 -7.3646E-01 -7.3646E-01 -7.3624E-01
 -7.3624E-01 -7.1773E-01 -7.1699E-01 -7.1651E-01 -3.4144E-01 -3.2673E-01 -3.2480E-01 -3.2445E-01 -3.1722E-01 -3.0158E-01
 -2.9520E-01 -2.9520E-01 -2.7617E-01 -2.5992E-01 -2.5992E-01 -2.5951E-01 -2.5947E-01 -2.5582E-01 -2.5582E-01 -2.4203E-01
 -2.4167E-01 -2.4012E-01 -2.4012E-01 -2.3838E-01 -2.3838E-01 -2.2426E-01 -2.2426E-01 -2.1859E-01 -2.1079E-01 -1.9727E-01
 -1.9727E-01 -1.7429E-01 -1.7429E-01 -1.7320E-01 -1.5549E-01 -1.5549E-01 -1.4830E-01 -4.8918E-02  8.9094E-03  1.3224E-02
  1.3224E-02  6.4403E-02  6.4403E-02  7.1623E-02  8.6847E-02  9.0628E-02  9.0628E-02  9.2081E-02  9.2141E-02  1.0901E-01
  1.0901E-01  1.1655E-01  1.1689E-01  1.3664E-01  1.9213E-01  2.1513E-01  2.2969E-01  2.5563E-01  2.5563E-01  2.6084E-01
  2.8419E-01  3.0362E-01  3.0362E-01  3.1154E-01  3.1873E-01  3.2330E-01  3.2330E-01  3.2715E-01  3.3029E-01  3.7144E-01
  4.0985E-01  4.1075E-01  4.1773E-01  4.4443E-01  4.4755E-01  4.4755E-01  4.7393E-01  5.1181E-01  5.2171E-01  5.2486E-01
  5.2486E-01  5.4641E-01  5.4641E-01  5.5358E-01  5.6813E-01  5.7344E-01  5.7344E-01  5.7465E-01  5.7465E-01  5.8028E-01
  5.8294E-01  5.9917E-01  6.0764E-01  6.1757E-01  6.1959E-01  6.4599E-01  6.5564E-01  6.5564E-01  6.6904E-01  6.7303E-01
  6.9360E-01  6.9360E-01  6.9865E-01  7.4258E-01  7.4355E-01  7.4355E-01  7.5959E-01  7.6212E-01  7.6259E-01  7.6259E-01
  7.6277E-01  7.9190E-01  7.9190E-01  7.9716E-01  8.1044E-01  8.2560E-01  8.2560E-01  8.2944E-01  9.0403E-01  9.0403E-01
  9.0550E-01  9.6792E-01  9.6933E-01  9.6933E-01  9.7762E-01  1.0535E+00  1.1176E+00  1.1176E+00  1.1451E+00  1.1600E+00
  1.1600E+00  1.1808E+00  1.1808E+00  1.1836E+00  1.1837E+00  1.2090E+00  1.2302E+00  1.2302E+00  1.2383E+00  1.2464E+00
  1.2468E+00  1.2468E+00  1.2775E+00  1.2775E+00  1.2837E+00  1.2837E+00  1.3093E+00  1.3316E+00  1.3421E+00  1.3552E+00
  1.3571E+00  1.3704E+00  1.3704E+00  1.4059E+00  1.4121E+00  1.4121E+00  1.4207E+00  1.4386E+00  1.4785E+00  1.4807E+00
  1.4807E+00  1.4933E+00  1.4933E+00  1.4984E+00  1.4992E+00  1.5304E+00  1.5373E+00  1.5867E+00  1.6102E+00  1.6102E+00
  1.6746E+00  1.6746E+00  1.6751E+00  1.6830E+00  1.6861E+00  1.7157E+00  1.7160E+00  1.7161E+00  1.7161E+00  1.7184E+00
  1.7206E+00  1.7277E+00  1.7277E+00  1.7625E+00  1.7731E+00  1.7731E+00  1.7931E+00  1.8261E+00  1.8261E+00  1.8346E+00
  1.8347E+00  1.8347E+00  1.8366E+00  1.8433E+00  1.8433E+00  1.8656E+00  1.8701E+00  1.8701E+00  1.8791E+00  1.9155E+00
  1.9946E+00  1.9946E+00  2.0182E+00  2.0528E+00  2.0846E+00  2.1167E+00  2.2169E+00  2.2349E+00  2.2588E+00  2.2588E+00
  2.3082E+00  2.3564E+00  2.4863E+00  2.5146E+00  2.8575E+00  2.9312E+00  2.9312E+00  2.9974E+00  3.1271E+00  3.1683E+00
  3.1944E+00  3.8071E+00  3.8132E+00  3.8132E+00  3.9853E+00  4.0053E+00  4.0053E+00  4.0094E+00  4.0263E+00  4.0263E+00
  4.1396E+00  4.1485E+00  4.1642E+00  4.1714E+00  4.1737E+00  4.1737E+00  4.2543E+00  4.2685E+00  4.2862E+00  4.5879E+00
  4.6001E+00  4.8061E+00  4.8176E+00  4.8176E+00  4.8408E+00  4.8684E+00  4.8684E+00  4.9001E+00  4.9130E+00  4.9306E+00
  4.9306E+00  5.0195E+00  5.0905E+00  5.0905E+00  5.2250E+00  5.2250E+00  5.2341E+00  5.2858E+00  5.2984E+00  5.2984E+00
  5.3144E+00  5.3262E+00  5.3262E+00  5.3322E+00  5.3362E+00  5.3484E+00  5.3505E+00  5.3505E+00  5.3542E+00  5.3542E+00
  5.3591E+00  5.3688E+00  5.3841E+00  5.3920E+00  5.6439E+00  5.6439E+00  5.6613E+00  5.7740E+00  5.7774E+00  5.7774E+00
  5.7879E+00  5.7879E+00  5.7936E+00  6.0513E+00  6.0513E+00  6.0515E+00  1.2971E+01  1.2971E+01  1.3046E+01  1.3117E+01
  1.3122E+01  1.3122E+01  1.3123E+01  1.3123E+01  1.3163E+01  1.3163E+01  1.3165E+01  1.3168E+01  1.3332E+01  1.3332E+01
  1.3403E+01  1.3543E+01  1.3551E+01  1.3551E+01  1.3687E+01  1.3706E+01  1.3706E+01  1.3721E+01  1.3731E+01  1.3731E+01
  1.3779E+01  1.3784E+01  1.3787E+01  1.3792E+01  1.3792E+01  1.3796E+01  1.3869E+01  1.3896E+01  1.3904E+01  1.4062E+01
  1.4071E+01  1.6762E+01  1.7347E+01  1.7358E+01  1.7376E+01  1.8285E+01  2.0519E+01  2.0519E+01  2.0530E+01  2.0596E+01
  2.0604E+01  2.0604E+01  2.0609E+01  2.0609E+01  2.0643E+01  2.0875E+01  2.0875E+01  2.0878E+01  4.3864E+01  4.3864E+01
  4.3878E+01  4.4714E+01  5.0023E+01  5.0029E+01  5.0056E+01  5.0056E+01  5.0057E+01  5.0096E+01  5.0139E+01  5.0139E+01
  5.0244E+01  5.0315E+01  5.0317E+01  5.8216E+01  5.8217E+01  5.8217E+01  5.8279E+01  5.8294E+01  5.8294E+01  5.8310E+01
  5.8310E+01  5.8320E+01  5.8340E+01  5.8347E+01  5.8347E+01  5.8348E+01  5.8360E+01  5.8360E+01  5.8389E+01  5.8405E+01
  5.8424E+01  5.8507E+01  5.8510E+01  6.6772E+01  6.7275E+01  6.7293E+01  6.7320E+01  6.9905E+01  6.9905E+01  6.9912E+01
  6.9965E+01  6.9976E+01  6.9976E+01  6.9983E+01  6.9983E+01  7.0006E+01  7.0206E+01  7.0209E+01  7.0209E+01  1.3961E+02
  3.2634E+02  3.2634E+02  3.2635E+02  3.2641E+02  3.2642E+02  3.2642E+02  3.2643E+02  3.2643E+02  3.2645E+02  3.2669E+02
  3.2669E+02  3.2669E+02  6.3116E+02  6.3239E+02  6.3240E+02  6.3244E+02

 FERMI ENERGY AND DENSITY MATRIX CALCULATION ON COMPUTED EIGENVECTORS
 DENSITY MATRIX AT SCF CYCLE ( 49+1)


    ALPHA      ELECTRONS
 INSULATING STATE - LEVEL SHIFTER    0.10 au
 TOP OF VALENCE BANDS -    BAND     88; K    2; EIG -1.6498731E-02 AU
 TOP OF VALENCE BANDS -    BAND     88; K    1; EIG -4.4163493E-02 AU
 BOTTOM OF VIRTUAL BANDS - BAND     89; K    1; EIG  4.5632648E-03 AU

    BETA       ELECTRONS
 INSULATING STATE - LEVEL SHIFTER    0.10 au
 TOP OF VALENCE BANDS -    BAND     88; K    2; EIG -1.7754923E-02 AU
 TOP OF VALENCE BANDS -    BAND     88; K    1; EIG -4.4163493E-02 AU
 BOTTOM OF VIRTUAL BANDS - BAND     89; K    1; EIG  4.5839261E-03 AU

 CORE DENSITY MATRIX CALCULATION

 HAMILTONIAN EIGENVECTORS - K=   1 (  0  0  0)

              12          13          14          15          16          17          18          19          20          21

    1      0.000      0.7632E-05  0.3496E-04 -0.3359E-04   0.000       0.000       0.000       0.000       0.000     -0.7168E-06
    2      0.000     -0.3449E-04 -0.1533E-03  0.1482E-03   0.000       0.000       0.000       0.000       0.000      0.3312E-05
    3      0.000       0.000       0.000       0.000       0.000       0.000     -0.1241E-04   0.000     -0.1348E-05   0.000    
    4      0.000       0.000       0.000       0.000       0.000      0.1241E-04   0.000      0.1348E-05   0.000       0.000    
    5      0.000      0.1315E-04 -0.3545E-04 -0.6113E-04   0.000       0.000       0.000       0.000       0.000     -0.1020E-03
    6      0.000      0.6042E-03  0.2987E-02 -0.3100E-02   0.000       0.000       0.000       0.000       0.000     -0.6122E-04
    7      0.000       0.000       0.000       0.000       0.000       0.000      0.1143E-03   0.000      0.2756E-04   0.000    
    8      0.000       0.000       0.000       0.000       0.000     -0.1143E-03   0.000     -0.2756E-04   0.000       0.000    
    9      0.000     -0.9684E-04 -0.2345E-03  0.6192E-04   0.000       0.000       0.000       0.000       0.000      0.6609E-03
   10      0.000     -0.1876E-02 -0.8666E-02  0.9797E-02   0.000       0.000       0.000       0.000       0.000      0.1458E-03
   11      0.000       0.000       0.000       0.000       0.000       0.000     -0.1232E-02   0.000     -0.6564E-03   0.000    
   12      0.000       0.000       0.000       0.000       0.000      0.1232E-02   0.000      0.6564E-03   0.000       0.000    
   13      0.000     -0.4237E-03  0.3072E-02  0.5654E-02   0.000       0.000       0.000       0.000       0.000     -0.2213E-02
   14      0.000      0.4286E-02 -0.9320E-02  0.1115E-01   0.000       0.000       0.000       0.000       0.000      0.6417E-03
   15      0.000       0.000       0.000       0.000       0.000       0.000     -0.2316E-02   0.000      0.2671E-02   0.000    
   16      0.000       0.000       0.000       0.000       0.000      0.2316E-02   0.000     -0.2671E-02   0.000       0.000    
   17     0.3139E-03   0.000       0.000       0.000     -0.6195E-02   0.000       0.000       0.000       0.000       0.000    
   18      0.000       0.000       0.000       0.000       0.000       0.000       0.000       0.000       0.000       0.000    
   19      0.000     -0.1828E-04  0.6478E-03 -0.6240E-03   0.000       0.000       0.000       0.000       0.000     -0.1401E-04
   20      0.000     -0.7333E-04  0.8343E-03 -0.7976E-03   0.000       0.000       0.000       0.000       0.000     -0.2017E-04
   21      0.000       0.000       0.000       0.000       0.000       0.000     -0.9745E-04   0.000     -0.4908E-04   0.000    
   22      0.000       0.000       0.000       0.000       0.000      0.9745E-04   0.000      0.4908E-04   0.000       0.000    
   23      0.000      0.1667E-05 -0.9203E-03 -0.9044E-03   0.000       0.000       0.000       0.000       0.000     -0.6545E-04
   24      0.000      0.8853E-03  0.5791E-03 -0.6832E-03   0.000       0.000       0.000       0.000       0.000      0.1774E-04
   25      0.000       0.000       0.000       0.000       0.000       0.000     -0.1209E-03   0.000     -0.2635E-04   0.000    
   26      0.000       0.000       0.000       0.000       0.000      0.1209E-03   0.000      0.2635E-04   0.000       0.000    
   27      0.000     -0.3057E-04 -0.1590E-02 -0.1423E-02   0.000       0.000       0.000       0.000       0.000      0.7674E-03
   28      0.000     -0.2014E-02 -0.9482E-02  0.9723E-02   0.000       0.000       0.000       0.000       0.000      0.2321E-03
   29      0.000       0.000       0.000       0.000       0.000       0.000     -0.8122E-03   0.000     -0.6566E-03   0.000    
   30      0.000       0.000       0.000       0.000       0.000      0.8122E-03   0.000      0.6566E-03   0.000       0.000    
   31      0.000      0.5256E-03 -0.4255E-02 -0.5343E-02   0.000       0.000       0.000       0.000       0.000     -0.3426E-02
   32      0.000      0.2020E-02 -0.9961E-02  0.1004E-01   0.000       0.000       0.000       0.000       0.000      0.2994E-03
   33      0.000       0.000       0.000       0.000       0.000       0.000      0.2047E-02   0.000     -0.2662E-02   0.000    
   34      0.000       0.000       0.000       0.000       0.000     -0.2047E-02   0.000      0.2662E-02   0.000       0.000    
   35     0.1681E-03   0.000       0.000       0.000      0.2870E-02   0.000       0.000       0.000       0.000       0.000    
   36      0.000       0.000       0.000       0.000       0.000       0.000       0.000       0.000       0.000       0.000    
   37    -0.9413E-05  0.1147E-02 -0.1150E-04  0.1319E-04  0.9056E-02   0.000       0.000       0.000       0.000      0.5781E-04
   38    -0.1414E-04  0.1581E-02 -0.4886E-04  0.5601E-04  0.1420E-01   0.000       0.000       0.000       0.000      0.9258E-04
   39      0.000       0.000       0.000       0.000       0.000       0.000      0.1585E-02   0.000      0.1268E-02   0.000    
   40      0.000       0.000       0.000       0.000       0.000     -0.1576E-02   0.000     -0.1231E-02   0.000       0.000    
   41    -0.1554E-02  0.1525E-04 -0.2167E-04 -0.1467E-04  0.6839E-04   0.000       0.000       0.000       0.000      0.1138E-01
   42     0.2324E-04 -0.8387E-03  0.6608E-03 -0.7674E-03 -0.3996E-01   0.000       0.000       0.000       0.000     -0.2966E-03
   43      0.000       0.000       0.000       0.000       0.000       0.000      0.2796E-02   0.000      0.2253E-02   0.000    
   44      0.000       0.000       0.000       0.000       0.000     -0.2891E-02   0.000     -0.2266E-02   0.000       0.000    
   45    -0.2984E-02  0.1521E-04  0.1236E-03  0.7890E-04  0.1256E-03   0.000       0.000       0.000       0.000      0.1721E-01
   46     0.9274E-04 -0.1152E-01 -0.1919E-02  0.2336E-02 -0.2526E-01   0.000       0.000       0.000       0.000      0.9535E-04
   47      0.000       0.000       0.000       0.000       0.000       0.000      0.1335E-02   0.000      0.9937E-03   0.000    
   48      0.000       0.000       0.000       0.000       0.000     -0.8056E-03   0.000     -0.6425E-03   0.000       0.000    
   49    -0.1018E-01  0.9793E-04 -0.7928E-03 -0.5505E-03 -0.1190E-03   0.000       0.000       0.000       0.000      0.2382E-02
   50     0.5635E-04 -0.1177E-01  0.9725E-03 -0.1366E-03  0.5176E-02   0.000       0.000       0.000       0.000      0.3013E-03
   51      0.000       0.000       0.000       0.000       0.000       0.000     -0.3189E-02   0.000      0.3961E-02   0.000    
   52      0.000       0.000       0.000       0.000       0.000     -0.5160E-02   0.000      0.6702E-02   0.000       0.000    
   53     0.1687E-03 -0.1138E-02 -0.1832E-03 -0.7492E-04 -0.5927E-03   0.000       0.000       0.000       0.000     -0.4356E-04
   54      0.000       0.000       0.000       0.000       0.000       0.000       0.000       0.000       0.000       0.000    
   55     0.9413E-05  0.1147E-02 -0.1150E-04  0.1319E-04 -0.9056E-02   0.000       0.000       0.000       0.000      0.5781E-04
   56     0.1414E-04  0.1581E-02 -0.4886E-04  0.5601E-04 -0.1420E-01   0.000       0.000       0.000       0.000      0.9258E-04
   57      0.000       0.000       0.000       0.000       0.000       0.000      0.1576E-02   0.000      0.1231E-02   0.000    
   58      0.000       0.000       0.000       0.000       0.000     -0.1585E-02   0.000     -0.1268E-02   0.000       0.000    
   59     0.1554E-02  0.1525E-04 -0.2167E-04 -0.1467E-04 -0.6839E-04   0.000       0.000       0.000       0.000      0.1138E-01
   60    -0.2324E-04 -0.8387E-03  0.6608E-03 -0.7674E-03  0.3996E-01   0.000       0.000       0.000       0.000     -0.2966E-03
   61      0.000       0.000       0.000       0.000       0.000       0.000      0.2891E-02   0.000      0.2266E-02   0.000    
   62      0.000       0.000       0.000       0.000       0.000     -0.2796E-02   0.000     -0.2253E-02   0.000       0.000    
   63     0.2984E-02  0.1521E-04  0.1236E-03  0.7890E-04 -0.1256E-03   0.000       0.000       0.000       0.000      0.1721E-01
   64    -0.9274E-04 -0.1152E-01 -0.1919E-02  0.2336E-02  0.2526E-01   0.000       0.000       0.000       0.000      0.9535E-04
   65      0.000       0.000       0.000       0.000       0.000       0.000      0.8056E-03   0.000      0.6425E-03   0.000    
   66      0.000       0.000       0.000       0.000       0.000     -0.1335E-02   0.000     -0.9937E-03   0.000       0.000    
   67     0.1018E-01  0.9793E-04 -0.7928E-03 -0.5505E-03  0.1190E-03   0.000       0.000       0.000       0.000      0.2382E-02
   68    -0.5635E-04 -0.1177E-01  0.9725E-03 -0.1366E-03 -0.5176E-02   0.000       0.000       0.000       0.000      0.3013E-03
   69      0.000       0.000       0.000       0.000       0.000       0.000      0.5160E-02   0.000     -0.6702E-02   0.000    
   70      0.000       0.000       0.000       0.000       0.000      0.3189E-02   0.000     -0.3961E-02   0.000       0.000    
   71     0.1687E-03  0.1138E-02  0.1832E-03  0.7492E-04 -0.5927E-03   0.000       0.000       0.000       0.000      0.4356E-04
   72      0.000       0.000       0.000       0.000       0.000       0.000       0.000       0.000       0.000       0.000    
   73     0.5459E-03  0.5293E-03  0.8277E-03  0.5383E-05 -0.2116E-03   0.000     -0.6435E-02   0.000      0.7956E-03  0.2042E-03
   74     0.7708E-03  0.7061E-03  0.1145E-02  0.2177E-04 -0.3459E-03   0.000     -0.1010E-01   0.000      0.1246E-02  0.3276E-03
   75     0.7283E-03  0.7344E-03 -0.1134E-02 -0.2088E-06 -0.2973E-03   0.000     -0.7103E-02   0.000      0.8951E-03  0.3152E-03
   76      0.000       0.000       0.000       0.000       0.000     -0.5041E-04   0.000     -0.1365E-02   0.000       0.000    
   77     0.5553E-04  0.1579E-04  0.2746E-04  0.6188E-05  0.9614E-03   0.000     -0.4085E-03   0.000      0.3699E-04 -0.9280E-03
   78    -0.7629E-03  0.1005E-04 -0.7261E-03 -0.2269E-03  0.1261E-02   0.000      0.2851E-01   0.000     -0.3481E-02 -0.1070E-02
   79     0.1384E-02  0.1363E-02 -0.2000E-02  0.6517E-04 -0.5933E-03   0.000     -0.1073E-01   0.000      0.7421E-03  0.4747E-03
   80      0.000       0.000       0.000       0.000       0.000     -0.2104E-03   0.000     -0.2460E-02   0.000       0.000    
   81    -0.5387E-04  0.1484E-03  0.1676E-04 -0.5291E-04  0.1647E-02   0.000     -0.6615E-03   0.000      0.1748E-03 -0.1794E-02
   82    -0.4367E-02 -0.6181E-02 -0.7792E-02  0.1651E-03 -0.6597E-03   0.000      0.1790E-01   0.000     -0.2387E-02  0.9297E-04
   83     0.4688E-02  0.4535E-02 -0.7895E-02 -0.9774E-03  0.5786E-03   0.000     -0.1307E-02   0.000      0.2251E-02 -0.3115E-03
   84      0.000       0.000       0.000       0.000       0.000      0.8064E-03   0.000     -0.1078E-02   0.000       0.000    
   85     0.4206E-03 -0.2585E-03  0.8231E-04  0.2214E-03  0.1398E-02   0.000      0.1646E-04   0.000     -0.5426E-03 -0.6290E-05
   86     0.3411E-02  0.1213E-02  0.2969E-02  0.2571E-02  0.9757E-03   0.000      0.1720E-02   0.000     -0.2815E-02 -0.4901E-04
   87    -0.8603E-03  0.2024E-03  0.2445E-03  0.3234E-03  0.4828E-02   0.000     -0.3810E-03   0.000      0.7347E-03 -0.1763E-02
   88      0.000       0.000       0.000       0.000       0.000     -0.2026E-03   0.000     -0.2454E-03   0.000       0.000    
   89    -0.6139E-02 -0.2669E-02 -0.6404E-02 -0.3375E-02 -0.1998E-02   0.000     -0.3643E-02   0.000     -0.1196E-02  0.2146E-03
   90      0.000       0.000       0.000       0.000       0.000     -0.2857E-02   0.000     -0.4369E-02   0.000       0.000    
   91    -0.5429E-03  0.5276E-03 -0.7833E-05 -0.8529E-03 -0.2164E-03   0.000     -0.7365E-03   0.000     -0.6309E-02 -0.2133E-03
   92    -0.7648E-03  0.7054E-03 -0.2333E-04 -0.1192E-02 -0.3533E-03   0.000     -0.1157E-02   0.000     -0.9899E-02 -0.3428E-03
   93    -0.7279E-03  0.7381E-03  0.8605E-05  0.1173E-02 -0.2983E-03   0.000     -0.8095E-03   0.000     -0.7276E-02 -0.3171E-03
   94      0.000       0.000       0.000       0.000       0.000     -0.1334E-02   0.000      0.2441E-03   0.000       0.000    
   95     0.6077E-04 -0.2264E-04  0.1110E-04  0.2109E-04 -0.9519E-03   0.000      0.6702E-04   0.000      0.4178E-03 -0.9119E-03
   96     0.7216E-03 -0.2393E-04  0.2024E-03  0.9615E-03  0.1281E-02   0.000      0.3292E-02   0.000      0.2794E-01  0.1136E-02
   97    -0.1365E-02  0.1301E-02 -0.8202E-04  0.2059E-02 -0.6062E-03   0.000     -0.1806E-02   0.000     -0.1085E-01 -0.4848E-03
   98      0.000       0.000       0.000       0.000       0.000     -0.2432E-02   0.000      0.3181E-03   0.000       0.000    
   99    -0.7149E-04 -0.1230E-03 -0.8328E-04  0.6143E-04 -0.1614E-02   0.000     -0.1241E-04   0.000      0.6950E-03 -0.1777E-02
  100     0.4479E-02 -0.6021E-02 -0.9585E-04  0.7378E-02 -0.5966E-03   0.000      0.1897E-02   0.000      0.1768E-01 -0.2049E-03
  101    -0.4759E-02  0.5092E-02  0.1320E-02  0.7566E-02  0.6763E-03   0.000      0.1813E-02   0.000     -0.1808E-02  0.3209E-03
  102      0.000       0.000       0.000       0.000       0.000     -0.8800E-03   0.000      0.1048E-02   0.000       0.000    
  103     0.5298E-03  0.1302E-03  0.4233E-03 -0.1632E-03 -0.1497E-02   0.000      0.5697E-03   0.000     -0.1579E-03  0.1935E-04
  104    -0.3768E-02  0.1332E-02 -0.2397E-02 -0.2268E-02  0.1111E-02   0.000     -0.2391E-02   0.000      0.2256E-02  0.4383E-03
  105    -0.8344E-03 -0.2562E-03  0.2624E-03 -0.1909E-03 -0.5025E-02   0.000     -0.4260E-03   0.000      0.6835E-03 -0.1889E-02
  106      0.000       0.000       0.000       0.000       0.000      0.3001E-03   0.000      0.9282E-04   0.000       0.000    
  107     0.6262E-02 -0.2614E-02  0.3476E-02  0.5758E-02 -0.2074E-02   0.000     -0.2036E-02   0.000     -0.3144E-02 -0.4650E-03
  108      0.000       0.000       0.000       0.000       0.000     -0.5044E-02   0.000     -0.1637E-02   0.000       0.000    
  109    -0.5429E-03  0.5276E-03 -0.7833E-05 -0.8529E-03 -0.2164E-03   0.000      0.7365E-03   0.000      0.6309E-02 -0.2133E-03
  110    -0.7648E-03  0.7054E-03 -0.2333E-04 -0.1192E-02 -0.3533E-03   0.000      0.1157E-02   0.000      0.9899E-02 -0.3428E-03
  111     0.7279E-03 -0.7381E-03 -0.8605E-05 -0.1173E-02  0.2983E-03   0.000     -0.8095E-03   0.000     -0.7276E-02  0.3171E-03
  112      0.000       0.000       0.000       0.000       0.000     -0.1334E-02   0.000      0.2441E-03   0.000       0.000    
  113     0.6077E-04 -0.2264E-04  0.1110E-04  0.2109E-04 -0.9519E-03   0.000     -0.6702E-04   0.000     -0.4178E-03 -0.9119E-03
  114     0.7216E-03 -0.2393E-04  0.2024E-03  0.9615E-03  0.1281E-02   0.000     -0.3292E-02   0.000     -0.2794E-01  0.1136E-02
  115     0.1365E-02 -0.1301E-02  0.8202E-04 -0.2059E-02  0.6062E-03   0.000     -0.1806E-02   0.000     -0.1085E-01  0.4848E-03
  116      0.000       0.000       0.000       0.000       0.000     -0.2432E-02   0.000      0.3181E-03   0.000       0.000    
  117    -0.7149E-04 -0.1230E-03 -0.8328E-04  0.6143E-04 -0.1614E-02   0.000      0.1241E-04   0.000     -0.6950E-03 -0.1777E-02
  118     0.4479E-02 -0.6021E-02 -0.9585E-04  0.7378E-02 -0.5966E-03   0.000     -0.1897E-02   0.000     -0.1768E-01 -0.2049E-03
  119     0.4759E-02 -0.5092E-02 -0.1320E-02 -0.7566E-02 -0.6763E-03   0.000      0.1813E-02   0.000     -0.1808E-02 -0.3209E-03
  120      0.000       0.000       0.000       0.000       0.000     -0.8800E-03   0.000      0.1048E-02   0.000       0.000    
  121     0.5298E-03  0.1302E-03  0.4233E-03 -0.1632E-03 -0.1497E-02   0.000     -0.5697E-03   0.000      0.1579E-03  0.1935E-04
  122    -0.3768E-02  0.1332E-02 -0.2397E-02 -0.2268E-02  0.1111E-02   0.000      0.2391E-02   0.000     -0.2256E-02  0.4383E-03
  123     0.8344E-03  0.2562E-03 -0.2624E-03  0.1909E-03  0.5025E-02   0.000     -0.4260E-03   0.000      0.6835E-03  0.1889E-02
  124      0.000       0.000       0.000       0.000       0.000      0.3001E-03   0.000      0.9282E-04   0.000       0.000    
  125     0.6262E-02 -0.2614E-02  0.3476E-02  0.5758E-02 -0.2074E-02   0.000      0.2036E-02   0.000      0.3144E-02 -0.4650E-03
  126      0.000       0.000       0.000       0.000       0.000      0.5044E-02   0.000      0.1637E-02   0.000       0.000    
  127     0.5459E-03  0.5293E-03  0.8277E-03  0.5383E-05 -0.2116E-03   0.000      0.6435E-02   0.000     -0.7956E-03  0.2042E-03
  128     0.7708E-03  0.7061E-03  0.1145E-02  0.2177E-04 -0.3459E-03   0.000      0.1010E-01   0.000     -0.1246E-02  0.3276E-03
  129    -0.7283E-03 -0.7344E-03  0.1134E-02  0.2088E-06  0.2973E-03   0.000     -0.7103E-02   0.000      0.8951E-03 -0.3152E-03
  130      0.000       0.000       0.000       0.000       0.000     -0.5041E-04   0.000     -0.1365E-02   0.000       0.000    
  131     0.5553E-04  0.1579E-04  0.2746E-04  0.6188E-05  0.9614E-03   0.000      0.4085E-03   0.000     -0.3699E-04 -0.9280E-03
  132    -0.7629E-03  0.1005E-04 -0.7261E-03 -0.2269E-03  0.1261E-02   0.000     -0.2851E-01   0.000      0.3481E-02 -0.1070E-02
  133    -0.1384E-02 -0.1363E-02  0.2000E-02 -0.6517E-04  0.5933E-03   0.000     -0.1073E-01   0.000      0.7421E-03 -0.4747E-03
  134      0.000       0.000       0.000       0.000       0.000     -0.2104E-03   0.000     -0.2460E-02   0.000       0.000    
  135    -0.5387E-04  0.1484E-03  0.1676E-04 -0.5291E-04  0.1647E-02   0.000      0.6615E-03   0.000     -0.1748E-03 -0.1794E-02
  136    -0.4367E-02 -0.6181E-02 -0.7792E-02  0.1651E-03 -0.6597E-03   0.000     -0.1790E-01   0.000      0.2387E-02  0.9297E-04
  137    -0.4688E-02 -0.4535E-02  0.7895E-02  0.9774E-03 -0.5786E-03   0.000     -0.1307E-02   0.000      0.2251E-02  0.3115E-03
  138      0.000       0.000       0.000       0.000       0.000      0.8064E-03   0.000     -0.1078E-02   0.000       0.000    
  139     0.4206E-03 -0.2585E-03  0.8231E-04  0.2214E-03  0.1398E-02   0.000     -0.1646E-04   0.000      0.5426E-03 -0.6290E-05
  140     0.3411E-02  0.1213E-02  0.2969E-02  0.2571E-02  0.9757E-03   0.000     -0.1720E-02   0.000      0.2815E-02 -0.4901E-04
  141     0.8603E-03 -0.2024E-03 -0.2445E-03 -0.3234E-03 -0.4828E-02   0.000     -0.3810E-03   0.000      0.7347E-03  0.1763E-02
  142      0.000       0.000       0.000       0.000       0.000     -0.2026E-03   0.000     -0.2454E-03   0.000       0.000    
  143    -0.6139E-02 -0.2669E-02 -0.6404E-02 -0.3375E-02 -0.1998E-02   0.000      0.3643E-02   0.000      0.1196E-02  0.2146E-03
  144      0.000       0.000       0.000       0.000       0.000      0.2857E-02   0.000      0.4369E-02   0.000       0.000    
  145    -0.5459E-03  0.5293E-03  0.8277E-03  0.5383E-05  0.2116E-03  0.6435E-02   0.000     -0.7956E-03   0.000      0.2042E-03
  146    -0.7708E-03  0.7061E-03  0.1145E-02  0.2177E-04  0.3459E-03  0.1010E-01   0.000     -0.1246E-02   0.000      0.3276E-03
  147      0.000       0.000       0.000       0.000       0.000       0.000      0.5041E-04   0.000      0.1365E-02   0.000    
  148    -0.7283E-03  0.7344E-03 -0.1134E-02 -0.2088E-06  0.2973E-03  0.7103E-02   0.000     -0.8951E-03   0.000      0.3152E-03
  149    -0.5553E-04  0.1579E-04  0.2746E-04  0.6188E-05 -0.9614E-03  0.4085E-03   0.000     -0.3699E-04   0.000     -0.9280E-03
  150     0.7629E-03  0.1005E-04 -0.7261E-03 -0.2269E-03 -0.1261E-02 -0.2851E-01   0.000      0.3481E-02   0.000     -0.1070E-02
  151      0.000       0.000       0.000       0.000       0.000       0.000      0.2104E-03   0.000      0.2460E-02   0.000    
  152    -0.1384E-02  0.1363E-02 -0.2000E-02  0.6517E-04  0.5933E-03  0.1073E-01   0.000     -0.7421E-03   0.000      0.4747E-03
  153     0.5387E-04  0.1484E-03  0.1676E-04 -0.5291E-04 -0.1647E-02  0.6615E-03   0.000     -0.1748E-03   0.000     -0.1794E-02
  154     0.4367E-02 -0.6181E-02 -0.7792E-02  0.1651E-03  0.6597E-03 -0.1790E-01   0.000      0.2387E-02   0.000      0.9297E-04
  155      0.000       0.000       0.000       0.000       0.000       0.000     -0.8064E-03   0.000      0.1078E-02   0.000    
  156    -0.4688E-02  0.4535E-02 -0.7895E-02 -0.9774E-03 -0.5786E-03  0.1307E-02   0.000     -0.2251E-02   0.000     -0.3115E-03
  157    -0.4206E-03 -0.2585E-03  0.8231E-04  0.2214E-03 -0.1398E-02 -0.1646E-04   0.000      0.5426E-03   0.000     -0.6290E-05
  158    -0.3411E-02  0.1213E-02  0.2969E-02  0.2571E-02 -0.9757E-03 -0.1720E-02   0.000      0.2815E-02   0.000     -0.4901E-04
  159      0.000       0.000       0.000       0.000       0.000       0.000      0.2026E-03   0.000      0.2454E-03   0.000    
  160     0.8603E-03  0.2024E-03  0.2445E-03  0.3234E-03 -0.4828E-02  0.3810E-03   0.000     -0.7347E-03   0.000     -0.1763E-02
  161    -0.6139E-02  0.2669E-02  0.6404E-02  0.3375E-02 -0.1998E-02 -0.3643E-02   0.000     -0.1196E-02   0.000     -0.2146E-03
  162      0.000       0.000       0.000       0.000       0.000       0.000      0.2857E-02   0.000      0.4369E-02   0.000    
  163     0.5429E-03  0.5276E-03 -0.7833E-05 -0.8529E-03  0.2164E-03  0.7365E-03   0.000      0.6309E-02   0.000     -0.2133E-03
  164     0.7648E-03  0.7054E-03 -0.2333E-04 -0.1192E-02  0.3533E-03  0.1157E-02   0.000      0.9899E-02   0.000     -0.3428E-03
  165      0.000       0.000       0.000       0.000       0.000       0.000      0.1334E-02   0.000     -0.2441E-03   0.000    
  166     0.7279E-03  0.7381E-03  0.8605E-05  0.1173E-02  0.2983E-03  0.8095E-03   0.000      0.7276E-02   0.000     -0.3171E-03
  167    -0.6077E-04 -0.2264E-04  0.1110E-04  0.2109E-04  0.9519E-03 -0.6702E-04   0.000     -0.4178E-03   0.000     -0.9119E-03
  168    -0.7216E-03 -0.2393E-04  0.2024E-03  0.9615E-03 -0.1281E-02 -0.3292E-02   0.000     -0.2794E-01   0.000      0.1136E-02
  169      0.000       0.000       0.000       0.000       0.000       0.000      0.2432E-02   0.000     -0.3181E-03   0.000    
  170     0.1365E-02  0.1301E-02 -0.8202E-04  0.2059E-02  0.6062E-03  0.1806E-02   0.000      0.1085E-01   0.000     -0.4848E-03
  171     0.7149E-04 -0.1230E-03 -0.8328E-04  0.6143E-04  0.1614E-02  0.1241E-04   0.000     -0.6950E-03   0.000     -0.1777E-02
  172    -0.4479E-02 -0.6021E-02 -0.9585E-04  0.7378E-02  0.5966E-03 -0.1897E-02   0.000     -0.1768E-01   0.000     -0.2049E-03
  173      0.000       0.000       0.000       0.000       0.000       0.000      0.8800E-03   0.000     -0.1048E-02   0.000    
  174     0.4759E-02  0.5092E-02  0.1320E-02  0.7566E-02 -0.6763E-03 -0.1813E-02   0.000      0.1808E-02   0.000      0.3209E-03
  175    -0.5298E-03  0.1302E-03  0.4233E-03 -0.1632E-03  0.1497E-02 -0.5697E-03   0.000      0.1579E-03   0.000      0.1935E-04
  176     0.3768E-02  0.1332E-02 -0.2397E-02 -0.2268E-02 -0.1111E-02  0.2391E-02   0.000     -0.2256E-02   0.000      0.4383E-03
  177      0.000       0.000       0.000       0.000       0.000       0.000     -0.3001E-03   0.000     -0.9282E-04   0.000    
  178     0.8344E-03 -0.2562E-03  0.2624E-03 -0.1909E-03  0.5025E-02  0.4260E-03   0.000     -0.6835E-03   0.000     -0.1889E-02
  179     0.6262E-02  0.2614E-02 -0.3476E-02 -0.5758E-02 -0.2074E-02 -0.2036E-02   0.000     -0.3144E-02   0.000      0.4650E-03
  180      0.000       0.000       0.000       0.000       0.000       0.000      0.5044E-02   0.000      0.1637E-02   0.000    
  181    -0.5459E-03  0.5293E-03  0.8277E-03  0.5383E-05  0.2116E-03 -0.6435E-02   0.000      0.7956E-03   0.000      0.2042E-03
  182    -0.7708E-03  0.7061E-03  0.1145E-02  0.2177E-04  0.3459E-03 -0.1010E-01   0.000      0.1246E-02   0.000      0.3276E-03
  183      0.000       0.000       0.000       0.000       0.000       0.000      0.5041E-04   0.000      0.1365E-02   0.000    
  184     0.7283E-03 -0.7344E-03  0.1134E-02  0.2088E-06 -0.2973E-03  0.7103E-02   0.000     -0.8951E-03   0.000     -0.3152E-03
  185    -0.5553E-04  0.1579E-04  0.2746E-04  0.6188E-05 -0.9614E-03 -0.4085E-03   0.000      0.3699E-04   0.000     -0.9280E-03
  186     0.7629E-03  0.1005E-04 -0.7261E-03 -0.2269E-03 -0.1261E-02  0.2851E-01   0.000     -0.3481E-02   0.000     -0.1070E-02
  187      0.000       0.000       0.000       0.000       0.000       0.000      0.2104E-03   0.000      0.2460E-02   0.000    
  188     0.1384E-02 -0.1363E-02  0.2000E-02 -0.6517E-04 -0.5933E-03  0.1073E-01   0.000     -0.7421E-03   0.000     -0.4747E-03
  189     0.5387E-04  0.1484E-03  0.1676E-04 -0.5291E-04 -0.1647E-02 -0.6615E-03   0.000      0.1748E-03   0.000     -0.1794E-02
  190     0.4367E-02 -0.6181E-02 -0.7792E-02  0.1651E-03  0.6597E-03  0.1790E-01   0.000     -0.2387E-02   0.000      0.9297E-04
  191      0.000       0.000       0.000       0.000       0.000       0.000     -0.8064E-03   0.000      0.1078E-02   0.000    
  192     0.4688E-02 -0.4535E-02  0.7895E-02  0.9774E-03  0.5786E-03  0.1307E-02   0.000     -0.2251E-02   0.000      0.3115E-03
  193    -0.4206E-03 -0.2585E-03  0.8231E-04  0.2214E-03 -0.1398E-02  0.1646E-04   0.000     -0.5426E-03   0.000     -0.6290E-05
  194    -0.3411E-02  0.1213E-02  0.2969E-02  0.2571E-02 -0.9757E-03  0.1720E-02   0.000     -0.2815E-02   0.000     -0.4901E-04
  195      0.000       0.000       0.000       0.000       0.000       0.000      0.2026E-03   0.000      0.2454E-03   0.000    
  196    -0.8603E-03 -0.2024E-03 -0.2445E-03 -0.3234E-03  0.4828E-02  0.3810E-03   0.000     -0.7347E-03   0.000      0.1763E-02
  197    -0.6139E-02  0.2669E-02  0.6404E-02  0.3375E-02 -0.1998E-02  0.3643E-02   0.000      0.1196E-02   0.000     -0.2146E-03
  198      0.000       0.000       0.000       0.000       0.000       0.000     -0.2857E-02   0.000     -0.4369E-02   0.000    
  199     0.5429E-03  0.5276E-03 -0.7833E-05 -0.8529E-03  0.2164E-03 -0.7365E-03   0.000     -0.6309E-02   0.000     -0.2133E-03
  200     0.7648E-03  0.7054E-03 -0.2333E-04 -0.1192E-02  0.3533E-03 -0.1157E-02   0.000     -0.9899E-02   0.000     -0.3428E-03
  201      0.000       0.000       0.000       0.000       0.000       0.000      0.1334E-02   0.000     -0.2441E-03   0.000    
  202    -0.7279E-03 -0.7381E-03 -0.8605E-05 -0.1173E-02 -0.2983E-03  0.8095E-03   0.000      0.7276E-02   0.000      0.3171E-03
  203    -0.6077E-04 -0.2264E-04  0.1110E-04  0.2109E-04  0.9519E-03  0.6702E-04   0.000      0.4178E-03   0.000     -0.9119E-03
  204    -0.7216E-03 -0.2393E-04  0.2024E-03  0.9615E-03 -0.1281E-02  0.3292E-02   0.000      0.2794E-01   0.000      0.1136E-02
  205      0.000       0.000       0.000       0.000       0.000       0.000      0.2432E-02   0.000     -0.3181E-03   0.000    
  206    -0.1365E-02 -0.1301E-02  0.8202E-04 -0.2059E-02 -0.6062E-03  0.1806E-02   0.000      0.1085E-01   0.000      0.4848E-03
  207     0.7149E-04 -0.1230E-03 -0.8328E-04  0.6143E-04  0.1614E-02 -0.1241E-04   0.000      0.6950E-03   0.000     -0.1777E-02
  208    -0.4479E-02 -0.6021E-02 -0.9585E-04  0.7378E-02  0.5966E-03  0.1897E-02   0.000      0.1768E-01   0.000     -0.2049E-03
  209      0.000       0.000       0.000       0.000       0.000       0.000      0.8800E-03   0.000     -0.1048E-02   0.000    
  210    -0.4759E-02 -0.5092E-02 -0.1320E-02 -0.7566E-02  0.6763E-03 -0.1813E-02   0.000      0.1808E-02   0.000     -0.3209E-03
  211    -0.5298E-03  0.1302E-03  0.4233E-03 -0.1632E-03  0.1497E-02  0.5697E-03   0.000     -0.1579E-03   0.000      0.1935E-04
  212     0.3768E-02  0.1332E-02 -0.2397E-02 -0.2268E-02 -0.1111E-02 -0.2391E-02   0.000      0.2256E-02   0.000      0.4383E-03
[...]
  379      0.000     -0.6045E-01   0.000       0.000     -0.2931E-01   0.000       0.000       0.000      0.1135E-01   0.000    
  380      0.000       0.000      0.8534E-01   0.000       0.000       0.000      0.1568E-01   0.000       0.000       0.000    
  381     0.1935E-01   0.000       0.000     -0.5859E-02   0.000       0.000       0.000       0.000       0.000     -0.4504E-02
  382      0.000     -0.1975E-01   0.000       0.000     -0.5411E-02   0.000       0.000       0.000      0.3602E-02   0.000    
  383      0.000       0.000      0.3057E-01   0.000       0.000       0.000      0.6469E-02   0.000       0.000       0.000    
  384      0.000       0.000     -0.2350E-04   0.000       0.000       0.000     -0.3662E-03   0.000       0.000       0.000    
  385    -0.6666E-03   0.000       0.000     -0.2897E-03   0.000       0.000       0.000       0.000       0.000     -0.1250E-01
  386      0.000     -0.7262E-03   0.000       0.000      0.2753E-03   0.000       0.000       0.000     -0.1322E-01   0.000    
  387      0.000       0.000     -0.1817E-03   0.000       0.000       0.000     -0.5882E-03   0.000       0.000       0.000    
  388      0.000       0.000       0.000       0.000       0.000      0.2651E-04   0.000     -0.1184E-01   0.000       0.000    
  389      0.000       0.000     -0.1229E-03   0.000       0.000       0.000     -0.1886E-02   0.000       0.000       0.000    
  390    -0.3536E-02   0.000       0.000     -0.1499E-02   0.000       0.000       0.000       0.000       0.000     -0.6528E-01
  391      0.000     -0.3857E-02   0.000       0.000      0.1414E-02   0.000       0.000       0.000     -0.6906E-01   0.000    
  392      0.000       0.000     -0.9370E-03   0.000       0.000       0.000     -0.3304E-02   0.000       0.000       0.000    
  393      0.000       0.000       0.000       0.000       0.000      0.1374E-03   0.000     -0.6176E-01   0.000       0.000    
  394      0.000       0.000     -0.3576E-03   0.000       0.000       0.000     -0.5648E-02   0.000       0.000       0.000    
  395    -0.1012E-01   0.000       0.000     -0.4466E-02   0.000       0.000       0.000       0.000       0.000     -0.1919    
  396      0.000     -0.1103E-01   0.000       0.000      0.4259E-02   0.000       0.000       0.000     -0.2030       0.000    
  397      0.000       0.000     -0.2806E-02   0.000       0.000       0.000     -0.8571E-02   0.000       0.000       0.000    
  398      0.000       0.000       0.000       0.000       0.000      0.4075E-03   0.000     -0.1819       0.000       0.000    
  399      0.000       0.000     -0.5068E-03   0.000       0.000       0.000     -0.7123E-02   0.000       0.000       0.000    
  400    -0.1478E-01   0.000       0.000     -0.5886E-02   0.000       0.000       0.000       0.000       0.000     -0.2601    
  401      0.000     -0.1608E-01   0.000       0.000      0.5479E-02   0.000       0.000       0.000     -0.2750       0.000    
  402      0.000       0.000     -0.3329E-02   0.000       0.000       0.000     -0.1781E-01   0.000       0.000       0.000    
  403      0.000       0.000       0.000       0.000       0.000      0.5511E-03   0.000     -0.2453       0.000       0.000    
  404      0.000       0.000     -0.1814E-03   0.000       0.000       0.000     -0.6282E-02   0.000       0.000       0.000    
  405    -0.5810E-02   0.000       0.000     -0.3750E-02   0.000       0.000       0.000       0.000       0.000     -0.1216    
  406      0.000     -0.6165E-02   0.000       0.000      0.3891E-02   0.000       0.000       0.000     -0.1277       0.000    
  407      0.000       0.000     -0.5455E-02   0.000       0.000       0.000      0.2584E-01   0.000       0.000       0.000    
  408      0.000       0.000       0.000       0.000       0.000      0.2996E-03   0.000     -0.1198       0.000       0.000    
  409     0.6325E-04 -0.6325E-04   0.000     -0.1650E-01  0.1650E-01   0.000     -0.9545E-02 -0.1784E-03 -0.1633E-02  0.1633E-02
  410    -0.5942E-04  0.5942E-04   0.000      0.1997E-01 -0.1997E-01   0.000      0.9221E-02  0.1338E-03  0.2101E-02 -0.2101E-02
  411    -0.8567E-04  0.8567E-04   0.000      0.6324E-02 -0.6324E-02   0.000      0.1447E-01  0.3968E-03  0.3293E-03 -0.3293E-03
  412     0.1824E-04 -0.6175E-04 -0.1409E-04 -0.7841E-03  0.1413E-03 -0.3005E-04 -0.5869E-02  0.3560E-04 -0.1051E-03  0.9677E-04
  413     0.6175E-04 -0.1824E-04  0.1409E-04 -0.1413E-03  0.7841E-03  0.3005E-04 -0.5869E-02  0.3560E-04 -0.9677E-04  0.1051E-03
  414    -0.1419E-03  0.1419E-03   0.000      0.3800E-04 -0.3800E-04   0.000     -0.7135E-04 -0.4729E-03 -0.2048E-03  0.2048E-03
  415    -0.1589E-03  0.4318E-03  0.7918E-04  0.5484E-02 -0.1153E-02  0.2074E-03  0.4485E-01 -0.2870E-03  0.8303E-03 -0.6892E-03
  416    -0.4318E-03  0.1589E-03 -0.7918E-04  0.1153E-02 -0.5484E-02 -0.2074E-03  0.4485E-01 -0.2870E-03  0.6892E-03 -0.8303E-03
  417     0.8940E-03 -0.8940E-03   0.000     -0.2727E-03  0.2727E-03   0.000      0.3671E-03  0.3488E-02  0.1808E-02 -0.1808E-02
  418     0.1851E-03  0.2928E-03  0.2341E-03  0.3756E-02  0.7588E-03  0.1656E-03 -0.1295E-02  0.1887E-03 -0.2436E-03 -0.6065E-03
  419    -0.2928E-03 -0.1851E-03 -0.2341E-03 -0.7588E-03 -0.3756E-02 -0.1656E-03 -0.1295E-02  0.1887E-03  0.6065E-03  0.2436E-03
  420     0.1198E-02 -0.1198E-02   0.000     -0.8668E-04  0.8668E-04   0.000      0.1934E-02  0.1184E-02 -0.2958E-02  0.2958E-02
  421     0.6325E-04 -0.6325E-04   0.000     -0.1650E-01  0.1650E-01   0.000      0.9545E-02  0.1784E-03 -0.1633E-02  0.1633E-02
  422    -0.5942E-04  0.5942E-04   0.000      0.1997E-01 -0.1997E-01   0.000     -0.9221E-02 -0.1338E-03  0.2101E-02 -0.2101E-02
  423    -0.8567E-04  0.8567E-04   0.000      0.6324E-02 -0.6324E-02   0.000     -0.1447E-01 -0.3968E-03  0.3293E-03 -0.3293E-03
  424    -0.1824E-04  0.6175E-04 -0.1409E-04  0.7841E-03 -0.1413E-03 -0.3005E-04 -0.5869E-02  0.3560E-04  0.1051E-03 -0.9677E-04
  425    -0.6175E-04  0.1824E-04  0.1409E-04  0.1413E-03 -0.7841E-03  0.3005E-04 -0.5869E-02  0.3560E-04  0.9677E-04 -0.1051E-03
  426    -0.1419E-03  0.1419E-03   0.000      0.3800E-04 -0.3800E-04   0.000      0.7135E-04  0.4729E-03 -0.2048E-03  0.2048E-03
  427     0.1589E-03 -0.4318E-03  0.7918E-04 -0.5484E-02  0.1153E-02  0.2074E-03  0.4485E-01 -0.2870E-03 -0.8303E-03  0.6892E-03
  428     0.4318E-03 -0.1589E-03 -0.7918E-04 -0.1153E-02  0.5484E-02 -0.2074E-03  0.4485E-01 -0.2870E-03 -0.6892E-03  0.8303E-03
  429     0.8940E-03 -0.8940E-03   0.000     -0.2727E-03  0.2727E-03   0.000     -0.3671E-03 -0.3488E-02  0.1808E-02 -0.1808E-02
  430    -0.1851E-03 -0.2928E-03  0.2341E-03 -0.3756E-02 -0.7588E-03  0.1656E-03 -0.1295E-02  0.1887E-03  0.2436E-03  0.6065E-03
  431     0.2928E-03  0.1851E-03 -0.2341E-03  0.7588E-03  0.3756E-02 -0.1656E-03 -0.1295E-02  0.1887E-03 -0.6065E-03 -0.2436E-03
  432     0.1198E-02 -0.1198E-02   0.000     -0.8668E-04  0.8668E-04   0.000     -0.1934E-02 -0.1184E-02 -0.2958E-02  0.2958E-02
  433    -0.6325E-04 -0.6325E-04   0.000      0.1650E-01  0.1650E-01   0.000      0.9545E-02 -0.1784E-03 -0.1633E-02 -0.1633E-02
  434     0.5942E-04  0.5942E-04   0.000     -0.1997E-01 -0.1997E-01   0.000     -0.9221E-02  0.1338E-03  0.2101E-02  0.2101E-02
  435     0.8567E-04  0.8567E-04   0.000     -0.6324E-02 -0.6324E-02   0.000     -0.1447E-01  0.3968E-03  0.3293E-03  0.3293E-03
  436    -0.1824E-04 -0.6175E-04  0.1409E-04  0.7841E-03  0.1413E-03 -0.3005E-04  0.5869E-02  0.3560E-04 -0.1051E-03 -0.9677E-04
  437     0.6175E-04  0.1824E-04  0.1409E-04 -0.1413E-03 -0.7841E-03 -0.3005E-04 -0.5869E-02 -0.3560E-04  0.9677E-04  0.1051E-03
  438     0.1419E-03  0.1419E-03   0.000     -0.3800E-04 -0.3800E-04   0.000      0.7135E-04 -0.4729E-03 -0.2048E-03 -0.2048E-03
  439     0.1589E-03  0.4318E-03 -0.7918E-04 -0.5484E-02 -0.1153E-02  0.2074E-03 -0.4485E-01 -0.2870E-03  0.8303E-03  0.6892E-03
  440    -0.4318E-03 -0.1589E-03 -0.7918E-04  0.1153E-02  0.5484E-02  0.2074E-03  0.4485E-01  0.2870E-03 -0.6892E-03 -0.8303E-03
  441    -0.8940E-03 -0.8940E-03   0.000      0.2727E-03  0.2727E-03   0.000     -0.3671E-03  0.3488E-02  0.1808E-02  0.1808E-02
  442    -0.1851E-03  0.2928E-03 -0.2341E-03 -0.3756E-02  0.7588E-03  0.1656E-03  0.1295E-02  0.1887E-03 -0.2436E-03  0.6065E-03
  443    -0.2928E-03  0.1851E-03 -0.2341E-03 -0.7588E-03  0.3756E-02  0.1656E-03 -0.1295E-02 -0.1887E-03 -0.6065E-03  0.2436E-03
  444    -0.1198E-02 -0.1198E-02   0.000      0.8668E-04  0.8668E-04   0.000     -0.1934E-02  0.1184E-02 -0.2958E-02 -0.2958E-02
  445     0.6325E-04  0.6325E-04   0.000     -0.1650E-01 -0.1650E-01   0.000      0.9545E-02 -0.1784E-03  0.1633E-02  0.1633E-02
  446    -0.5942E-04 -0.5942E-04   0.000      0.1997E-01  0.1997E-01   0.000     -0.9221E-02  0.1338E-03 -0.2101E-02 -0.2101E-02
  447    -0.8567E-04 -0.8567E-04   0.000      0.6324E-02  0.6324E-02   0.000     -0.1447E-01  0.3968E-03 -0.3293E-03 -0.3293E-03
  448    -0.1824E-04 -0.6175E-04 -0.1409E-04  0.7841E-03  0.1413E-03  0.3005E-04 -0.5869E-02 -0.3560E-04 -0.1051E-03 -0.9677E-04
  449     0.6175E-04  0.1824E-04 -0.1409E-04 -0.1413E-03 -0.7841E-03  0.3005E-04  0.5869E-02  0.3560E-04  0.9677E-04  0.1051E-03
  450    -0.1419E-03 -0.1419E-03   0.000      0.3800E-04  0.3800E-04   0.000      0.7135E-04 -0.4729E-03  0.2048E-03  0.2048E-03
  451     0.1589E-03  0.4318E-03  0.7918E-04 -0.5484E-02 -0.1153E-02 -0.2074E-03  0.4485E-01  0.2870E-03  0.8303E-03  0.6892E-03
  452    -0.4318E-03 -0.1589E-03  0.7918E-04  0.1153E-02  0.5484E-02 -0.2074E-03 -0.4485E-01 -0.2870E-03 -0.6892E-03 -0.8303E-03
  453     0.8940E-03  0.8940E-03   0.000     -0.2727E-03 -0.2727E-03   0.000     -0.3671E-03  0.3488E-02 -0.1808E-02 -0.1808E-02
  454    -0.1851E-03  0.2928E-03  0.2341E-03 -0.3756E-02  0.7588E-03 -0.1656E-03 -0.1295E-02 -0.1887E-03 -0.2436E-03  0.6065E-03
  455    -0.2928E-03  0.1851E-03  0.2341E-03 -0.7588E-03  0.3756E-02 -0.1656E-03  0.1295E-02  0.1887E-03 -0.6065E-03  0.2436E-03
  456     0.1198E-02  0.1198E-02   0.000     -0.8668E-04 -0.8668E-04   0.000     -0.1934E-02  0.1184E-02  0.2958E-02  0.2958E-02

              92
    1      0.000    
    2      0.000    
    3      0.000    
    4    -0.4106E-03
    5      0.000    
    6      0.000    
    7      0.000    
    8     0.4019E-02
    9      0.000    
   10      0.000    
   11      0.000    
   12    -0.4694E-01
   13      0.000    
   14      0.000    
   15      0.000    
   16    -0.1169E-01
   17      0.000    
   18      0.000    
   19      0.000    
   20      0.000    
   21      0.000    
   22    -0.6171E-01
   23      0.000    
   24      0.000    
   25      0.000    
   26    -0.8371E-01
   27      0.000    
   28      0.000    
   29      0.000    
   30    -0.1450    
   31      0.000    
   32      0.000    
   33      0.000    
   34    -0.2078E-02
   35      0.000    
   36      0.000    
   37      0.000    
   38      0.000    
   39      0.000    
   40     0.7241E-01
   41      0.000    
   42      0.000    
   43      0.000    
   44     0.1009    
   45      0.000    
   46      0.000    
   47      0.000    
   48     0.1731    
   49      0.000    
   50      0.000    
   51      0.000    
   52     0.7237E-02
   53      0.000    
   54      0.000    
   55      0.000    
   56      0.000    
   57      0.000    
   58     0.9377E-01
   59      0.000    
   60      0.000    
   61      0.000    
   62     0.1340    
   63      0.000    
   64      0.000    
   65      0.000    
   66     0.1982    
   67      0.000    
   68      0.000    
   69      0.000    
   70    -0.6614E-02
   71      0.000    
   72      0.000    
   73      0.000    
   74      0.000    
   75      0.000    
   76    -0.4235E-02
   77      0.000    
   78      0.000    
   79      0.000    
   80    -0.8732E-02
   81      0.000    
   82      0.000    
   83      0.000    
   84     0.4119E-02
   85      0.000    
   86      0.000    
   87      0.000    
   88     0.1647E-01
   89      0.000    
   90     0.1674E-01
   91      0.000    
   92      0.000    
   93      0.000    
   94     0.4974E-02
   95      0.000    
   96      0.000    
   97      0.000    
   98     0.9756E-02
   99      0.000    
  100      0.000    
  101      0.000    
  102    -0.2101E-02
  103      0.000    
  104      0.000    
  105      0.000    
  106     0.1730E-01
  107      0.000    
  108    -0.1384E-01
  109      0.000    
  110      0.000    
  111      0.000    
  112     0.4974E-02
  113      0.000    
  114      0.000    
  115      0.000    
  116     0.9756E-02
  117      0.000    
  118      0.000    
  119      0.000    
  120    -0.2101E-02
  121      0.000    
  122      0.000    
  123      0.000    
  124     0.1730E-01
  125      0.000    
  126     0.1384E-01
  127      0.000    
  128      0.000    
  129      0.000    
  130     0.4235E-02
  131      0.000    
  132      0.000    
  133      0.000    
  134     0.8732E-02
  135      0.000    
  136      0.000    
  137      0.000    
  138    -0.4119E-02
  139      0.000    
  140      0.000    
  141      0.000    
  142    -0.1647E-01
  143      0.000    
  144     0.1674E-01
  145    -0.2386E-02
  146    -0.4031E-02
  147      0.000    
  148     0.1563E-01
  149     0.1347E-01
  150     0.1587E-01
  151      0.000    
  152     0.2296E-01
  153     0.2240E-01
  154     0.4079E-02
  155      0.000    
  156     0.3263E-01
  157     0.1413E-01
  158    -0.4314E-01
  159      0.000    
  160    -0.1293    
  161    -0.1481E-01
  162      0.000    
  163     0.2490E-02
  164     0.4189E-02
  165      0.000    
  166    -0.1508E-01
  167     0.2241E-01
  168    -0.1610E-01
  169      0.000    
  170    -0.2183E-01
  171     0.3496E-01
  172    -0.7019E-02
  173      0.000    
  174    -0.3372E-01
  175     0.3466E-01
  176     0.4131E-01
  177      0.000    
  178    -0.1207    
  179     0.1556E-01
  180      0.000    
  181    -0.2386E-02
  182    -0.4031E-02
  183      0.000    
  184    -0.1563E-01
  185     0.1347E-01
  186     0.1587E-01
  187      0.000    
  188    -0.2296E-01
  189     0.2240E-01
  190     0.4079E-02
  191      0.000    
  192    -0.3263E-01
  193     0.1413E-01
  194    -0.4314E-01
  195      0.000    
  196     0.1293    
  197    -0.1481E-01
  198      0.000    
  199    -0.2490E-02
  200    -0.4189E-02
  201      0.000    
  202    -0.1508E-01
  203    -0.2241E-01
  204     0.1610E-01
  205      0.000    
  206    -0.2183E-01
  207    -0.3496E-01
  208     0.7019E-02
  209      0.000    
  210    -0.3372E-01
  211    -0.3466E-01
  212    -0.4131E-01
  213      0.000    
  214    -0.1207    
  215    -0.1556E-01
  216      0.000    
  217      0.000    
  218      0.000    
  219      0.000    
  220      0.000    
  221      0.000    
  222      0.000    
  223     0.3639E-04
  224      0.000    
  225      0.000    
  226    -0.1112E-03
  227      0.000    
  228      0.000    
  229     0.5259E-03
  230      0.000    
  231      0.000    
  232    -0.1826E-02
  233      0.000    
  234      0.000    
  235     0.2184E-02
  236      0.000    
  237      0.000    
  238    -0.1960E-01
  239      0.000    
  240      0.000    
  241      0.000    
  242    -0.1009E-01
  243      0.000    
  244      0.000    
  245      0.000    
  246      0.000    
  247    -0.5265E-01
  248      0.000    
  249      0.000    
  250      0.000    
  251      0.000    
  252    -0.1548    
  253      0.000    
  254      0.000    
  255      0.000    
  256      0.000    
  257    -0.2112    
  258      0.000    
  259      0.000    
  260      0.000    
  261      0.000    
  262    -0.1028    
  263      0.000    
  264      0.000    
  265      0.000    
  266      0.000    
  267      0.000    
  268      0.000    
  269      0.000    
  270      0.000    
  271     0.1848E-04
  272      0.000    
  273      0.000    
  274    -0.1116E-03
  275      0.000    
  276      0.000    
  277     0.3324E-03
  278      0.000    
  279      0.000    
  280    -0.1123E-02
  281      0.000    
  282      0.000    
  283     0.3524E-02
  284      0.000    
  285      0.000    
  286    -0.1701E-01
  287      0.000    
  288      0.000    
  289      0.000    
  290     0.1058E-01
  291      0.000    
  292      0.000    
  293      0.000    
  294      0.000    
  295     0.5520E-01
  296      0.000    
  297      0.000    
  298      0.000    
  299      0.000    
  300     0.1625    
  301      0.000    
  302      0.000    
  303      0.000    
  304      0.000    
  305     0.2218    
  306      0.000    
  307      0.000    
  308      0.000    
  309      0.000    
  310     0.1074    
  311      0.000    
  312      0.000    
  313      0.000    
  314      0.000    
  315      0.000    
  316      0.000    
  317      0.000    
  318      0.000    
  319     0.6431E-04
  320      0.000    
  321      0.000    
  322     0.3431E-03
  323      0.000    
  324      0.000    
  325     0.2515E-03
  326      0.000    
  327      0.000    
  328    -0.2176E-02
  329      0.000    
  330      0.000    
  331    -0.1605E-01
  332      0.000    
  333      0.000    
  334     0.1664E-01
  335      0.000    
  336      0.000    
  337      0.000    
  338    -0.1139E-01
  339      0.000    
  340      0.000    
  341      0.000    
  342      0.000    
  343    -0.5945E-01
  344      0.000    
  345      0.000    
  346      0.000    
  347      0.000    
  348    -0.1751    
  349      0.000    
  350      0.000    
  351      0.000    
  352      0.000    
  353    -0.2350    
  354      0.000    
  355      0.000    
  356      0.000    
  357      0.000    
  358    -0.1102    
  359      0.000    
  360      0.000    
  361      0.000    
  362      0.000    
  363      0.000    
  364      0.000    
  365      0.000    
  366      0.000    
  367    -0.5923E-04
  368      0.000    
  369      0.000    
  370    -0.3224E-03
  371      0.000    
  372      0.000    
  373    -0.2246E-03
  374      0.000    
  375      0.000    
  376     0.1982E-02
  377      0.000    
  378      0.000    
  379     0.1502E-01
  380      0.000    
  381      0.000    
  382    -0.1590E-01
  383      0.000    
  384      0.000    
  385      0.000    
  386    -0.9657E-02
  387      0.000    
  388      0.000    
  389      0.000    
  390      0.000    
  391    -0.5039E-01
  392      0.000    
  393      0.000    
  394      0.000    
  395      0.000    
  396    -0.1484    
  397      0.000    
  398      0.000    
  399      0.000    
  400      0.000    
  401    -0.1989    
  402      0.000    
  403      0.000    
  404      0.000    
  405      0.000    
  406    -0.9350E-01
  407      0.000    
  408      0.000    
  409    -0.3648E-01
  410     0.4649E-01
  411     0.9677E-02
  412    -0.2090E-02
  413    -0.1923E-02
  414     0.2719E-04
  415     0.1635E-01
  416     0.1294E-01
  417    -0.2726E-03
  418    -0.1705E-02
  419     0.2260E-01
  420     0.7785E-03
  421    -0.3648E-01
  422     0.4649E-01
  423     0.9677E-02
  424     0.2090E-02
  425     0.1923E-02
  426     0.2719E-04
  427    -0.1635E-01
  428    -0.1294E-01
  429    -0.2726E-03
  430     0.1705E-02
  431    -0.2260E-01
  432     0.7785E-03
  433    -0.3648E-01
  434     0.4649E-01
  435     0.9677E-02
  436    -0.2090E-02
  437     0.1923E-02
  438     0.2719E-04
  439     0.1635E-01
  440    -0.1294E-01
  441    -0.2726E-03
  442    -0.1705E-02
  443    -0.2260E-01
  444     0.7785E-03
  445     0.3648E-01
  446    -0.4649E-01
  447    -0.9677E-02
  448    -0.2090E-02
  449     0.1923E-02
  450    -0.2719E-04
  451     0.1635E-01
  452    -0.1294E-01
  453     0.2726E-03
  454    -0.1705E-02
  455    -0.2260E-01
  456    -0.7785E-03
 TTTTTTTTTTTTTTTTTTTTTTTTTTTTTT NEWK        TELAPSE        2.78 TCPU        1.50
 ENDPROP   
 TTTTTTTTTTTTTTTTTTTTTTTTTTTTTT END         TELAPSE        2.82 TCPU        1.51
 EEEEEEEEEE TERMINATION  DATE 07 01 2013 TIME 19:18:10.5
