Run in 16 thrds at chemix49, chemix50 (opd at chemix50)

core exponents
CRYSTAL
0 0 0
229
2.73304212
1
26 0.0 0.0 0.0
OPTGEOM
NUMGRCEL
CELLONLY
FINALRUN
4
END
END
26 7
0 0 8 2.0  1.0
 315379.0      0.000227
  45690.0      0.0019
   9677.3      0.0111
   2520.88     0.0501
    759.746    0.1705
    262.964    0.36924
    102.801    0.4033
     42.9733   0.1434
0 1 6 8.0 1.0
    798.262   -0.0052   0.00850
    191.162   -0.068    0.0608
     63.6885  -0.1314   0.2114
     25.3625   0.2517   0.3944
     10.7338   0.6433   0.398
      3.764    0.2825   0.2251
0 1 4 8.0 1.0
     48.1434   0.0122  -0.0215
     17.4579  -0.2278  -0.085
      6.9972  -0.8801   0.201
      3.0791   0.9755   1.3024
0 1 1 2.0 1.0
      1.12906219885424   1.0      1.0
0 1 1 0.0 1.0
      0.17646253899289   1.0      1.0
0 3 4 6.0 1.0
     30.4821   0.0583
      8.692    0.2591
      3.1008   0.5162
      1.14780015129678   0.5656
0 3 1 0.0 1.0
      0.36083608202566  1.0
99 0
END
DFT
SPIN
EXCHANGE
PBE
HYBRID
25.
CORRELAT
PBE
TOLLDENS
8
TOLLGRID
16
XLGRID
END
BIPOSIZE
99000000
EXCHSIZE
99000000
TOLINTEG
8 8 8 8 16
TOLDEE
10
TOLPSEUD
8
MAXCYCLE
450
ATOMSPIN
1
1 1
FMIXING
40
ANDERSON
SMEAR
0.025
SHRINK
8 16
SCFDIR
PPAN
END



Required INPUT file has been prepared
 PROCESS            9  OF           16  WORKING
 PROCESS            0  OF           16  WORKING
 PROCESS           10  OF           16  WORKING
 PROCESS            1  OF           16  WORKING
 PROCESS           15  OF           16  WORKING
 PROCESS            2  OF           16  WORKING
 PROCESS            8  OF           16  WORKING
 PROCESS            5  OF           16  WORKING
 PROCESS           13  OF           16  WORKING
 PROCESS           14  OF           16  WORKING
 PROCESS           11  OF           16  WORKING
 PROCESS           12  OF           16  WORKING
 PROCESS            3  OF           16  WORKING
 PROCESS            4  OF           16  WORKING
 PROCESS            6  OF           16  WORKING

         
 *******************************************************************************
 *                                                                             *
 *                                CRYSTAL09                                    *
 *                              public : 1.0                                   *
 *                      March 5th, 2010 - parallel executable                  *
 *                                                                             *
 *                                                                             *
 *                                                                             *
 *                              MAIN AUTHORS                                   *
 *                                                                             *
 *    R. DOVESI(1,10), V.R. SAUNDERS(2), C. ROETTI(1,10), R. ORLANDO (1,3),    *
 *  C.M. ZICOVICH-WILSON(1,4), F. PASCALE(5), B. CIVALLERI(1,10), K. DOLL(6),  *
 *       N.M. HARRISON(2,7), I. J. BUSH(2), Ph. D'ARCO(8), M. LLUNELL(9)       *
 *                                                                             *
 * (1) THEORETICAL CHEMISTRY GROUP - UNIVERSITA' DI TORINO - TORINO (ITALY)    *
 *      http://www.crystal.unito.it                                            *
 * (2) COMPUTATIONAL SCIENCE & ENGINEERING DEPARTMENT - CCLRC DARESBURY (UK)   *
 *     http://www.cse.clrc.ac.uk/cmg/CRYSTAL/                                  *
 * (3) UNIVERSITA' DEL PIEMONTE ORIENTALE - ALESSANDRIA (ITALY)                *
 * (4) UNIVERSIDAD AUTONOMA DEL ESTADO DE MORELOS - CUERNAVACA (MEXICO)        *
 * (5) UNIVERSITE' HENRI POINCARE' - NANCY (FRANCE)                            *
 * (6) MPI FUER FESTKOERPERFORSCHUNG - STUTTGART (GERMANY)                     *
 * (7) IMPERIAL COLLEGE - LONDON (UK)                                          *
 * (8) UNIVERSITE' PIERRE ET MARIE CURIE - PARIS (FRANCE)                      *
 * (9) UNIVERSIDAD DE BARCELONA - BARCELONA (SPAIN)                            *
 *(10) NIS - NANOSTRUCTURED INTERFACES AND SURFACES - TORINO (ITALY)           *
 *     http://www.crystal.unito.it                                             *
 *******************************************************************************
 EEEEEEEEEE STARTING  DATE 23 06 2011 TIME 17:17:31.9
 core exponents                                                                  

 CRYSTAL CALCULATION
 (INPUT ACCORDING TO THE INTERNATIONAL TABLES FOR X-RAY CRYSTALLOGRAPHY)
 CRYSTAL FAMILY                       :  CUBIC       
 CRYSTAL CLASS  (GROTH - 1921)        :  CUBIC HEXAKISOCTAHEDRAL              

 SPACE GROUP (CENTROSYMMETRIC)        :  I M 3 M         

 LATTICE PARAMETERS  (ANGSTROMS AND DEGREES) - CONVENTIONAL CELL
        A           B           C        ALPHA        BETA       GAMMA
     2.73304     2.73304     2.73304    90.00000    90.00000    90.00000


 NUMBER OF IRREDUCIBLE ATOMS IN THE CONVENTIONAL CELL:    1

 INPUT COORDINATES

 ATOM AT. N.              COORDINATES
   1  26     0.000000000000E+00  0.000000000000E+00  0.000000000000E+00

 *******************************************************************************

 << INFORMATION >>: FROM NOW ON, ALL COORDINATES REFER TO THE PRIMITIVE CELL

 *******************************************************************************

 LATTICE PARAMETERS  (ANGSTROMS AND DEGREES) - PRIMITIVE CELL
       A          B          C         ALPHA     BETA     GAMMA        VOLUME
    2.36688    2.36688    2.36688   109.47122 109.47122 109.47122     10.207255

 COORDINATES OF THE EQUIVALENT ATOMS (FRACTIONAL UNITS)

 N. ATOM EQUIV AT. N.          X                  Y                  Z

   1   1   1   26 FE    0.00000000000E+00  0.00000000000E+00  0.00000000000E+00

 NUMBER OF SYMMETRY OPERATORS         :   48
 *******************************************************************************
 * GEOMETRY EDITING - INPUT COORDINATES ARE GIVEN IN ANGSTROM         
 *******************************************************************************

 GEOMETRY NOW FULLY CONSISTENT WITH TH PROCESS            7  OF           16  WORKING
E GROUP
 INFORMATION **** NUMGRCEL ****  CELL  NUMERICAL GRADIENT
 INFORMATION **** CELLONLY **** ONLY CELL PARAMETERS ARE OPTIMIZED

 IMPORTANT INFORMATION:
 THE COORDINATE SYSTEM ADOPTED IN THE OPTIMIZATION HAS NOT IN
 GENERAL HOMOGENEOUS UNITS. FOR THIS REASON THE GRADIENT AND 
 HESSIAN MATRIX IN TERMS OF THIS SYSTEM ARE GIVEN WITHOUT
 UNITS. FOR MORE DETAILS SEE THE MANUAL.

 *******************************************************************************
 CELL OPTIMIZATION CONTROL

 INITIAL TRUST RADIUS         0.50000 MAXIMUM TRUST RADIUS               4.00000
 MAXIMUM GRADIENT COMPONENT   0.00045 MAXIMUM DISPLACEMENT COMPONENT     0.00180
 R.M.S. OF GRADIENT COMPONENT 0.00030 R.M.S. OF DISPLACEMENT COMPONENTS  0.00120
 THRESHOLD ON ENERGY CHANGE 0.100E-06 EXTRAPOLATING POLYNOMIAL ORDER           2
 MAXIMUM ALLOWED NUMBER OF STEPS  100 SORTING OF ENERGY POINTS:               NO
 NUM  CELL   GRADIENT                 HESSIAN UPDATING                      BFGS
 STEP SIZE NUMERICAL GRADIENT 0.00100
 INITIAL HESSIAN MATRIX: SCHLEGEL MODEL 2
 *******************************************************************************


 GCALCO - MAX INDICES DIRECT LATTICE VECTOR    14    14    14
 NO.OF VECTORS CREATED 6999 STARS  122 RMAX    48.72369 BOHR

 GEOMETRY FOR WAVE FUNCTION - DIMENSIONALITY OF THE SYSTEM    3
 (NON PERIODIC DIRECTION: LATTICE PARAMETER FORMALLY SET TO 500)
 *******************************************************************************
 LATTICE PARAMETERS (ANGSTROMS AND DEGREES) - BOHR = 0.5291772083 ANGSTROM
 PRIMITIVE CELL - CENTRING CODE 6/0 VOLUME=    10.207255 - DENSITY  9.100 g/cm^3
         A              B              C           ALPHA      BETA       GAMMA 
     2.36688391     2.36688391     2.36688391   109.471221 109.471221 109.471221
 *******************************************************************************
 ATOMS IN THE ASYMMETRIC UNIT    1 - ATOMS IN THE UNIT CELL:    1
     ATOM              X/A                 Y/B                 Z/C    
 *******************************************************************************
   1 T  26 FE    0.000000000000E+00  0.000000000000E+00  0.000000000000E+00

 TRANSFORMATION MATRIX PRIMITIVE-CRYSTALLOGRAPHIC CELL
  0.0000  1.0000  1.0000  1.0000  0.0000  1.0000  1.0000  1.0000  0.0000

 *******************************************************************************
 CRYSTALLOGRAPHIC CELL (VOLUME=         20.41451067)
         A              B              C           ALPHA      BETA       GAMMA 
     2.73304212     2.73304212     2.73304212    90.000000  90.000000  90.000000

 COORDINATES IN THE CRYSTALLOGRAPHIC CELL
     ATOM              X/A                 Y/B                 Z/C    
 *******************************************************************************
   1 T  26 FE    0.000000000000E+00  0.000000000000E+00  0.000000000000E+00

 T = ATOM BELONGING TO THE ASYMMETRIC UNIT

 ****  48 SYMMOPS - TRANSLATORS IN FRACTIONAL UNITS
  V INV                   ROTATION MATRICES                       TRANSLATOR
  1  1  1.00  0.00  0.00  0.00  1.00  0.00  0.00  0.00  1.00    0.00  0.00  0.00
  2  2  0.00  1.00 -1.00  1.00  0.00 -1.00  0.00  0.00 -1.00    0.00  0.00  0.00
  3  3 -1.00  0.00  0.00 -1.00  0.00  1.00 -1.00  1.00  0.00    0.00  0.00  0.00
  4  4  0.00 -1.00  1.00  0.00 -1.00  0.00  1.00 -1.00  0.00    0.00  0.00  0.00
  5  6  0.00  0.00  1.00  1.00  0.00  0.00  0.00  1.00  0.00    0.00  0.00  0.00
  6  5  0.00  1.00  0.00  0.00  0.00  1.00  1.00  0.00  0.00    0.00  0.00  0.00
  7  8  1.00 -1.00  0.00  0.00 -1.00  1.00  0.00 -1.00  0.00    0.00  0.00  0.00
  8  7  1.00  0.00 -1.00  0.00  0.00 -1.00  0.00  1.00 -1.00    0.00  0.00  0.00
  9 10  0.00  0.00 -1.00  0.00  1.00 -1.00  1.00  0.00 -1.00    0.00  0.00  0.00
 10  9 -1.00  0.00  1.00 -1.00  1.00  0.00 -1.00  0.00  0.00    0.00  0.00  0.00
 11 12 -1.00  1.00  0.00 -1.00  0.00  0.00 -1.00  0.00  1.00    0.00  0.00  0.00
 12 11  0.00 -1.00  0.00  1.00 -1.00  0.00  0.00 -1.00  1.00    0.00  0.00  0.00
 13 13  0.00 -1.00  0.00 -1.00  0.00  0.00  0.00  0.00 -1.00    0.00  0.00  0.00
 14 14 -1.00  0.00  1.00  0.00 -1.00  1.00  0.00  0.00  1.00    0.00  0.00  0.00
 15 16  1.00  0.00 -1.00  1.00  0.00  0.00  1.00 -1.00  0.00    0.00  0.00  0.00
 16 15  0.00  1.00  0.00  0.00  1.00 -1.00 -1.00  1.00  0.00    0.00  0.00  0.00
 17 17 -1.00  0.00  0.00  0.00  0.00 -1.00  0.00 -1.00  0.00    0.00  0.00  0.00
 18 18  0.00  0.00 -1.00  0.00 -1.00  0.00 -1.00  0.00  0.00    0.00  0.00  0.00
 19 21  0.00  1.00 -1.00 -1.00  1.00  0.00  0.00  1.00  0.00    0.00  0.00  0.00
 20 22  0.00  0.00  1.00 -1.00  0.00  1.00  0.00 -1.00  1.00    0.00  0.00  0.00
 21 19  0.00 -1.00  1.00  0.00  0.00  1.00 -1.00  0.00  1.00    0.00  0.00  0.00
 22 20  1.00 -1.00  0.00  1.00  0.00 -1.00  1.00  0.00  0.00    0.00  0.00  0.00
 23 23  1.00  0.00  0.00  1.00 -1.00  0.00  1.00  0.00 -1.00    0.00  0.00  0.00
 24 24 -1.00  1.00  0.00  0.00  1.00  0.00  0.00  1.00 -1.00    0.00  0.00  0.00
 25 25 -1.00  0.00  0.00  0.00 -1.00  0.00  0.00  0.00 -1.00    0.00  0.00  0.00
 26 26  0.00 -1.00  1.00 -1.00  0.00  1.00  0.00  0.00  1.00    0.00  0.00  0.00
 27 27  1.00  0.00  0.00  1.00  0.00 -1.00  1.00 -1.00  0.00    0.00  0.00  0.00
 28 28  0.00  1.00 -1.00  0.00  1.00  0.00 -1.00  1.00  0.00    0.00  0.00  0.00
 29 30  0.00  0.00 -1.00 -1.00  0.00  0.00  0.00 -1.00  0.00    0.00  0.00  0.00
 30 29  0.00 -1.00  0.00  0.00  0.00 -1.00 -1.00  0.00  0.00    0.00  0.00  0.00
 31 32 -1.00  1.00  0.00  0.00  1.00 -1.00  0.00  1.00  0.00    0.00  0.00  0.00
 32 31 -1.00  0.00  1.00  0.00  0.00  1.00  0.00 -1.00  1.00    0.00  0.00  0.00
 33 34  0.00  0.00  1.00  0.00 -1.00  1.00 -1.00  0.00  1.00    0.00  0.00  0.00
 34 33  1.00  0.00 -1.00  1.00 -1.00  0.00  1.00  0.00  0.00    0.00  0.00  0.00
 35 36  1.00 -1.00  0.00  1.00  0.00  0.00  1.00  0.00 -1.00    0.00  0.00  0.00
 36 35  0.00  1.00  0.00 -1.00  1.00  0.00  0.00  1.00 -1.00    0.00  0.00  0.00
 37 37  0.00  1.00  0.00  1.00  0.00  0.00  0.00  0.00  1.00    0.00  0.00  0.00
 38 38  1.00  0.00 -1.00  0.00  1.00 -1.00  0.00  0.00 -1.00    0.00  0.00  0.00
 39 40 -1.00  0.00  1.00 -1.00  0.00  0.00 -1.00  1.00  0.00    0.00  0.00  0.00
 40 39  0.00 -1.00  0.00  0.00 -1.00  1.00  1.00 -1.00  0.00    0.00  0.00  0.00
 41 41  1.00  0.00  0.00  0.00  0.00  1.00  0.00  1.00  0.00    0.00  0.00  0.00
 42 42  0.00  0.00  1.00  0.00  1.00  0.00  1.00  0.00  0.00    0.00  0.00  0.00
 43 45  0.00 -1.00  1.00  1.00 -1.00  0.00  0.00 -1.00  0.00    0.00  0.00  0.00
 44 46  0.00  0.00 -1.00  1.00  0.00 -1.00  0.00  1.00 -1.00    0.00  0.00  0.00
 45 43  0.00  1.00 -1.00  0.00  0.00 -1.00  1.00  0.00 -1.00    0.00  0.00  0.00
 46 44 -1.00  1.00  0.00 -1.00  0.00  1.00 -1.00  0.00  0.00    0.00  0.00  0.00
 47 47 -1.00  0.00  0.00 -1.00  1.00  0.00 -1.00  0.00  1.00    0.00  0.00  0.00
 48 48  1.00 -1.00  0.00  0.00 -1.00  0.00  0.00 -1.00  1.00    0.00  0.00  0.00

 DIRECT LATTICE VECTORS CARTESIAN COMPONENTS (ANGSTROM)
          X                    Y                    Z
  -0.136652106000E+01   0.136652106000E+01   0.136652106000E+01
   0.136652106000E+01  -0.136652106000E+01   0.136652106000E+01
   0.136652106000E+01   0.136652106000E+01  -0.136652106000E+01


 CARTESIAN COORDINATES - PRIMITIVE CELL
 *******************************************************************************
 *      ATOM          X(ANGSTROM)         Y(ANGSTROM)         Z(ANGSTROM)
 *******************************************************************************
   1    26 FE    0.000000000000E+00  0.000000000000E+00  0.000000000000E+00

 *******************************************************************************
 LOCAL ATOMIC FUNCTIONS BASIS SET
 *******************************************************************************
   ATOM  X(AU)  Y(AU)  Z(AU)    NO. TYPE  EXPONENT  S COEF   P COEF   D/F/G COEF
 *******************************************************************************
   1 FE  0.000  0.000  0.000
                                  1 S  
                                         3.154E+05 2.270E-04 0.000E+00 0.000E+00
                                         4.569E+04 1.900E-03 0.000E+00 0.000E+00
                                         9.677E+03 1.110E-02 0.000E+00 0.000E+00
                                         2.521E+03 5.010E-02 0.000E+00 0.000E+00
                                         7.597E+02 1.705E-01 0.000E+00 0.000E+00
                                         2.630E+02 3.692E-01 0.000E+00 0.000E+00
                                         1.028E+02 4.033E-01 0.000E+00 0.000E+00
                                         4.297E+01 1.434E-01 0.000E+00 0.000E+00
                             2-   5 SP 
                                         7.983E+02-5.200E-03 8.500E-03 0.000E+00
                                         1.912E+02-6.800E-02 6.080E-02 0.000E+00
                                         6.369E+01-1.314E-01 2.114E-01 0.000E+00
                                         2.536E+01 2.517E-01 3.944E-01 0.000E+00
                                         1.073E+01 6.433E-01 3.980E-01 0.000E+00
                                         3.764E+00 2.825E-01 2.251E-01 0.000E+00
                             6-   9 SP 
                                         4.814E+01 1.220E-02-2.150E-02 0.000E+00
                                         1.746E+01-2.278E-01-8.500E-02 0.000E+00
                                         6.997E+00-8.801E-01 2.010E-01 0.000E+00
                                         3.079E+00 9.755E-01 1.302E+00 0.000E+00
                            10-  13 SP 
                                         1.129E+00 1.000E+00 1.000E+00 0.000E+00
                            14-  17 SP 
                                         1.765E-01 1.000E+00 1.000E+00 0.000E+00
                            18-  22 D  
                                         3.048E+01 0.000E+00 0.000E+00 5.830E-02
                                         8.692E+00 0.000E+00 0.000E+00 2.591E-01
                                         3.101E+00 0.000E+00 0.000E+00 5.162E-01
                                         1.148E+00 0.000E+00 0.000E+00 5.656E-01
                            23-  27 D  
                                         3.608E-01 0.000E+00 0.000E+00 1.000E+00
 INFORMATION **** BIPOSIZE **** COULOMB BIPOLAR BUFFER SET TO    99000000
 INFORMATION **** EXCHSIZE **** EXCHANGE BIPOLAR BUFFER SIZE SET TO    99000000
 INFORMATION **** TOLINTEG **** COULOMB AND EXCHANGE SERIES TOLERANCES MODIFIED
 INFORMATION **** TOLDEE **** SCF TOL ON TOTAL ENERGY SET TO          10
 INFORMATION **** TOLPSEUD **** PSEUDO TOLERANCE (5) MODIFIED- SET TO           8
 INFORMATION **** MAXCYCLE **** MAX NUMBER OF SCF CYCLES SET TO         450
 SSSSSSSSSSSSSSSSSSSSSSSSSSSSSSSSSSSSSSSSSSSSSSSSSSSSSSSSSSSSSSSSSSSSSSSSSSSSSS
 ATOMIC SPINS SET TO (ATOM, AT. N., SPIN)
   1  26 1
 INFORMATION **** SMEAR **** FERMI SMEARING ACTIVE
 FERMI SMEARING - TEMPERATURE SMEARING OF FERMI SURFACE  0.2500E-01
 INFORMATION **** READM2 **** FULL DIRECT SCF (MONO AND BIEL INT) SELECTED
 INFORMATION **** PPAN ****  MULLIKEN POPULATION ANALYSIS AT THE END OF SCF
 *******************************************************************************
 N. OF ATOMS PER CELL        1  COULOMB OVERLAP TOL         (T1) 10** -8
 NUMBER OF SHELLS            7  COULOMB PENETRATION TOL     (T2) 10** -8
 NUMBER OF AO               27  EXCHANGE OVERLAP TOL        (T3) 10** -8
 N. OF ELECTRONS PER CELL   26  EXCHANGE PSEUDO OVP (F(G))  (T4) 10** -8
 CORE ELECTRONS PER CELL    18  EXCHANGE PSEUDO OVP (P(G))  (T5) 10**-16
 N. OF SYMMETRY OPERATORS   48  POLE ORDER IN MONO ZONE                4
 *******************************************************************************
 TYPE OF CALCULATION :  UNRESTRICTED OPEN SHELL
 KOHN-SHAM HAMILTONIAN

 (EXCHANGE)[CORRELATION] FUNCTIONAL:(PERDEW-BURKE-ERNZERHOF)[PERDEW-BURKE-ERNZERHOF]


 HYBRID EXCHANGE - PERCENTAGE OF FOCK EXCHANGE    25.0000

 SPIN POLARIZED DFT SELECTED

 CAPPA:IS1  8;IS2  8;IS3  8; K PTS MONK NET   29; SYMMOPS: K SPACE 48;G SPACE 48

 *******************************************************************************
 MAX NUMBER OF SCF CYCLES     450  CONVERGENCE ON DELTAP        10**-20
 WEIGHT OF F(I) IN F(I+1)      40% CONVERGENCE ON ENERGY        10**-10
 SHRINK. FACT.(MONKH.)    8  8  8  NUMBER OF K POINTS IN THE IBZ     29
 SHRINKING FACTOR(GILAT NET)   16  NUMBER OF K POINTS(GILAT NET)    145
 *******************************************************************************
 *** K POINTS COORDINATES (OBLIQUE COORDINATES IN UNITS OF IS =  8)
   1-R(  0  0  0)   2-C(  1  0  0)   3-C(  2  0  0)   4-C(  3  0  0)
   5-R(  4  0  0)   6-C(  1  1  0)   7-C(  2  1  0)   8-C(  3  1  0)
   9-C(  2  2  0)  10-C(  3  2  0)  11-C(  1  1  1)  12-C(  2  1  1)
  13-C(  3  1  1)  14-C(  7  1  1)  15-C(  2  2  1)  16-C(  6  2  1)
  17-C(  5  3  1)  18-C(  6  3  1)  19-C(  4  4  1)  20-C(  5  4  1)
  21-C(  5  5  1)  22-C(  2  2  2)  23-C(  6  2  2)  24-C(  5  3  2)
  25-C(  4  4  2)  26-C(  5  4  2)  27-C(  5  3  3)  28-C(  4  4  3)
  29-R(  4  4  4)

 DIRECT LATTICE VECTORS COMPON. (A.U.)     RECIP. LATTICE VECTORS COMPON. (A.U.) 
        X            Y            Z              X            Y            Z
   -2.5823506    2.5823506    2.5823506      0.0000000    1.2165632    1.2165632
    2.5823506   -2.5823506    2.5823506      1.2165632    0.0000000    1.2165632
    2.5823506    2.5823506   -2.5823506      1.2165632    1.2165632    0.0000000

 DISK SPACE FOR EIGENVECTORS (FTN 10)      40095 REALS

 SYMMETRY ADAPTION OF THE BLOCH FUNCTIONS ENABLED
 TTTTTTTTTTTTTTTTTTTTTTTTTTTTTT gordsh1     TELAPSE        1.06 TCPU        0.03

 DIMENSIONS  P(G)=   74843 F(G)=   12806 P(G),F(G) (IRR)    3314
 MAX G-VECTOR INDEX FOR 1- AND 2-ELECTRON INTEGRALS 531

 TTTTTTTTTTTTTTTTTTTTTTTTTTTTTT INPUT       TELAPSE        1.06 TCPU        0.04

 NEIGHBORS OF THE NON-EQUIVALENT ATOMS

 N = NUMBER OF NEIGHBORS AT DISTANCE R
    ATOM  N     R/ANG      R/AU   NEIGHBORS (ATOM LABELS AND CELL INDICES)
   1 FE   8     2.3669     4.4728   1 FE  -1-1-1   1 FE   1 1 1   1 FE  -1 0 0
                                    1 FE   1 0 0   1 FE   0-1 0   1 FE   0 1 0
                                    1 FE   0 0-1   1 FE   0 0 1
   1 FE   6     2.7330     5.1647   1 FE  -1-1 0   1 FE   1 1 0   1 FE  -1 0-1
                                    1 FE   1 0 1   1 FE   0-1-1   1 FE   0 1 1
   1 FE  12     3.8651     7.3040   1 FE  -2-1-1   1 FE   2 1 1   1 FE  -1-2-1
                                    1 FE   1 2 1   1 FE  -1-1-2   1 FE   1 1 2
                                    1 FE  -1 0 1   1 FE   1 0-1   1 FE  -1 1 0
                                    1 FE   1-1 0   1 FE   0-1 1   1 FE   0 1-1
   1 FE  24     4.5322     8.5647   1 FE  -2-2-1   1 FE   2 2 1   1 FE  -2-1-2
                                    1 FE   2 1 2   1 FE  -2-1 0   1 FE   2 1 0
                                    1 FE  -2 0-1   1 FE   2 0 1   1 FE  -1-2-2
                                    1 FE   1 2 2   1 FE  -1-2 0   1 FE   1 2 0
                                    1 FE  -1-1 1   1 FE   1 1-1   1 FE  -1 0-2
                                    1 FE   1 0 2   1 FE  -1 1-1   1 FE   1-1 1
                                    1 FE  -1 1 1   1 FE   1-1-1   1 FE   0-2-1
                                    1 FE   0 2 1   1 FE   0-1-2   1 FE   0 1 2
   1 FE   8     4.7338     8.9455   1 FE  -2-2-2   1 FE   2 2 2   1 FE  -2 0 0
                                    1 FE   2 0 0   1 FE   0-2 0   1 FE   0 2 0
                                    1 FE   0 0-2   1 FE   0 0 2
   1 FE   6     5.4661    10.3294   1 FE  -2-2 0   1 FE   2 2 0   1 FE  -2 0-2
                                    1 FE   2 0 2   1 FE   0-2-2   1 FE   0 2 2


 SYMMETRY ALLOWED ELASTIC DISTORTION 1
  0.5773503  0.0000000  0.0000000
  0.0000000  0.5773503  0.0000000
  0.0000000  0.0000000  0.5773503

 THERE ARE NO SYMMETRY ALLOWED DIRECTIONS
 INFORMATION **** INT_SCREEN **** CELL PARAMETERS OPTIMIZATION
 TTTTTTTTTTTTTTTTTTTTTTTTTTTTTT SYMM        TELAPSE        1.07 TCPU        0.05
 TTTTTTTTTTTTTTTTTTTTTTTTTTTTTT INT_SCREEN  TELAPSE        1.08 TCPU        0.05
 *******************************************************************************
 CELL OPTIMIZATION - POINT    1
 INFORMATION **** EXCBUF **** EXCH. BIPO BUFFER: WORDS USED =      390177

 DFT PARAMETERS

     ATOM       ELECTRONS   NET CHARGE   R(ANGSTROM)
   1  26  FE     26.0000      0.0000     1.26000000

 SIZE OF GRID=        680
 TTTTTTTTTTTTTTTTTTTTTTTTTTTTTT MAKE_GRID2  TELAPSE        1.60 TCPU        0.58
 BECKE WEIGHT FUNCTION
 RADSAFE =     2.00
 TOLERANCES - DENSITY:10**- 8; POTENTIAL:10**- 9; GRID WGT:10**-16

 RADIAL INTEGRATION  - INTERVALS (POINTS,UPPER LIMIT):            1( 75,  4.0*R)

 ANGULAR INTEGRATION - INTERVALS (ACCURACY LEVEL [N. POINTS] UPPER LIMIT):
  1(  4[  86]   0.2)  2(  8[ 194]   0.5)  3( 12[ 350]   0.9)  4( 16[ 974]   3.5)
  5( 12[ 350]9999.0)
 TTTTTTTTTTTTTTTTTTTTTTTTTTTTTT INT_CALC    TELAPSE        1.62 TCPU        0.60

 *******************************************************************************
 core exponents                                                                  
 CRYSTAL - SCF - TYPE OF CALCULATION :  UNRESTRICTED OPEN SHELL
 *******************************************************************************

 CAPPA:IS1  8;IS2  8;IS3  8; K PTS MONK NET   29; SYMMOPS: K SPACE 48;G SPACE 48

 TTTTTTTTTTTTTTTTTTTTTTTTTTTTTT SDIK        TELAPSE        1.65 TCPU        0.62

 AAAAAAAAAAAAAAAAAAAAAAAAAAAAAAAAAAAAAAAAAAAAAAAAAAAAAAAAAAAAAAAAAAAAAAAAAAAAAAA
         ATOMIC WAVEFUNCTION(S)


 NUCLEAR CHARGE 26.0  SYMMETRY SPECIES            S    P    D
 N. ELECTRONS   26.0  NUMBER OF PRIMITIVE GTOS   20   12    5
                      NUMBER OF CONTRACTED GTOS   5    4    2
                      NUMBER OF CLOSED SHELLS     4    2    0
                      OPEN SHELL OCCUPATION       0    0    6

  ZNUC SCFIT  TOTAL HF ENERGY   KINETIC ENERGY   VIRIAL THEOREM ACCURACY
  26.0  18   -1.262071468E+03  1.264231931E+03 -1.998291086E+00  3.1E-06

 AAAAAAAAAAAAAAAAAAAAAAAAAAAAAAAAAAAAAAAAAAAAAAAAAAAAAAAAAAAAAAAAAAAAAAAAAAAAAAA

 CHARGE NORMALIZATION FACTOR   1.00000000
 TOTAL ATOMIC CHARGES:
  26.0000000
 SUMMED SPIN DENSITY           4.00000000
 TOTAL ATOMIC SPINS  :
   4.0000000
 TTTTTTTTTTTTTTTTTTTTTTTTTTTTTT MOQGAD      TELAPSE        1.66 TCPU        0.64
 TTTTTTTTTTTTTTTTTTTTTTTTTTTTTT SHELLX      TELAPSE        1.85 TCPU        0.83
 TTTTTTTTTTTTTTTTTTTTTTTTTTTTTT MONMO3      TELAPSE        5.20 TCPU        4.17
 NUMERICALLY INTEGRATED DENSITY     15.0000013769     11.0000008560
 TTTTTTTTTTTTTTTTTTTTTTTTTTTTTT NUMDFT      TELAPSE        5.40 TCPU        4.37
 CYC   0 ETOT(AU) -1.263447240437E+03 DETOT -1.26E+03 tst  0.00E+00 PX  1.00E+00
 TTTTTTTTTTTTTTTTTTTTTTTTTTTTTT FDIK        TELAPSE        5.40 TCPU        4.38
 POSSIBLY CONDUCTING STATE - EFERMI(AU)  1.4058623E-02 (RES. CHARGE  2.70E-08;IT.  8)
 TTTTTTTTTTTTTTTTTTTTTTTTTTTTTT PDIG        TELAPSE        5.43 TCPU        4.40
 CHARGE NORMALIZATION FACTOR   1.00000000
 TOTAL ATOMIC CHARGES:
  26.0000000
 SUMMED SPIN DENSITY           3.14314897
 TOTAL ATOMIC SPINS  :
   3.1431490
 TTTTTTTTTTTTTTTTTTTTTTTTTTTTTT MOQGAD      TELAPSE        5.43 TCPU        4.41
 TTTTTTTTTTTTTTTTTTTTTTTTTTTTTT SHELLX      TELAPSE        5.64 TCPU        4.61
 TTTTTTTTTTTTTTTTTTTTTTTTTTTTTT MONMO3      TELAPSE        8.94 TCPU        7.91
 NUMERICALLY INTEGRATED DENSITY     14.5715759468     11.4284270436
 TTTTTTTTTTTTTTTTTTTTTTTTTTTTTT NUMDFT      TELAPSE        9.67 TCPU        8.65
 CYC   1 ETOT(AU) -1.263443621677E+03 DETOT  3.62E-03 tst  0.00E+00 PX  1.00E+00
 TTTTTTTTTTTTTTTTTTTTTTTTTTTTTT FDIK        TELAPSE        9.68 TCPU        8.66
 POSSIBLY CONDUCTING STATE - EFERMI(AU) -1.1800224E-01 (RES. CHARGE  1.17E-08;IT.  8)
 TTTTTTTTTTTTTTTTTTTTTTTTTTTTTT PDIG        TELAPSE        9.70 TCPU        8.68
 CHARGE NORMALIZATION FACTOR   1.00000000
 TOTAL ATOMIC CHARGES:
  26.0000000
 SUMMED SPIN DENSITY           2.96088725
 TOTAL ATOMIC SPINS  :
   2.9608872
 TTTTTTTTTTTTTTTTTTTTTTTTTTTTTT MOQGAD      TELAPSE        9.71 TCPU        8.68
 TTTTTTTTTTTTTTTTTTTTTTTTTTTTTT SHELLX      TELAPSE        9.91 TCPU        8.89
 TTTTTTTTTTTTTTTTTTTTTTTTTTTTTT MONMO3      TELAPSE       13.21 TCPU       12.19
 NUMERICALLY INTEGRATED DENSITY     14.4804448927     11.5195577955
 TTTTTTTTTTTTTTTTTTTTTTTTTTTTTT NUMDFT      TELAPSE       13.95 TCPU       12.92
 CYC   2 ETOT(AU) -1.263459655159E+03 DETOT -1.60E-02 tst  2.44E-03 PX  8.09E-02
 TTTTTTTTTTTTTTTTTTTTTTTTTTTTTT FDIK        TELAPSE       13.95 TCPU       12.93
 POSSIBLY CONDUCTING STATE - EFERMI(AU) -9.7869558E-02 (RES. CHARGE  9.08E-11;IT. 10)
 TTTTTTTTTTTTTTTTTTTTTTTTTTTTTT PDIG        TELAPSE       13.98 TCPU       12.95
 CHARGE NORMALIZATION FACTOR   1.00000000
 TOTAL ATOMIC CHARGES:
  26.0000000
 SUMMED SPIN DENSITY           2.88615397
 TOTAL ATOMIC SPINS  :
   2.8861540
 TTTTTTTTTTTTTTTTTTTTTTTTTTTTTT MOQGAD      TELAPSE       13.98 TCPU       12.96
 TTTTTTTTTTTTTTTTTTTTTTTTTTTTTT SHELLX      TELAPSE       14.19 TCPU       13.16
 TTTTTTTTTTTTTTTTTTTTTTTTTTTTTT MONMO3      TELAPSE       17.49 TCPU       16.47
 NUMERICALLY INTEGRATED DENSITY     14.4430783321     11.5569245578
 TTTTTTTTTTTTTTTTTTTTTTTTTTTTTT NUMDFT      TELAPSE       18.22 TCPU       17.20
 CYC   3 ETOT(AU) -1.263469238451E+03 DETOT -9.58E-03 tst  1.53E-03 PX  4.65E-02
 ANDERSON MIX: BETA=   4.736094023451E-01
 TTTTTTTTTTTTTTTTTTTTTTTTTTTTTT FDIK        TELAPSE       18.23 TCPU       17.21
 POSSIBLY CONDUCTING STATE - EFERMI(AU) -1.2197091E-01 (RES. CHARGE  7.32E-11;IT. 12)
 TTTTTTTTTTTTTTTTTTTTTTTTTTTTTT PDIG        TELAPSE       18.25 TCPU       17.23
 CHARGE NORMALIZATION FACTOR   1.00000000
 TOTAL ATOMIC CHARGES:
  26.0000000
 SUMMED SPIN DENSITY           2.85185690
 TOTAL ATOMIC SPINS  :
   2.8518569
 TTTTTTTTTTTTTTTTTTTTTTTTTTTTTT MOQGAD      TELAPSE       18.26 TCPU       17.24
 TTTTTTTTTTTTTTTTTTTTTTTTTTTTTT SHELLX      TELAPSE       18.46 TCPU       17.44
 TTTTTTTTTTTTTTTTTTTTTTTTTTTTTT MONMO3      TELAPSE       21.76 TCPU       20.74
 NUMERICALLY INTEGRATED DENSITY     14.4259297481     11.5740730631
 TTTTTTTTTTTTTTTTTTTTTTTTTTTTTT NUMDFT      TELAPSE       22.50 TCPU       21.48
 CYC   4 ETOT(AU) -1.263473228823E+03 DETOT -3.99E-03 tst  1.42E-04 PX  1.92E-02
 ANDERSON MIX: BETA=  -1.902534559427E-01
 TTTTTTTTTTTTTTTTTTTTTTTTTTTTTT FDIK        TELAPSE       22.51 TCPU       21.49
 POSSIBLY CONDUCTING STATE - EFERMI(AU) -1.3256022E-01 (RES. CHARGE  6.79E-08;IT. 10)
 TTTTTTTTTTTTTTTTTTTTTTTTTTTTTT PDIG        TELAPSE       22.53 TCPU       21.51
 CHARGE NORMALIZATION FACTOR   1.00000000
 TOTAL ATOMIC CHARGES:
  26.0000000
 SUMMED SPIN DENSITY           2.79954573
 TOTAL ATOMIC SPINS  :
   2.7995457
 TTTTTTTTTTTTTTTTTTTTTTTTTTTTTT MOQGAD      TELAPSE       22.54 TCPU       21.51
 TTTTTTTTTTTTTTTTTTTTTTTTTTTTTT SHELLX      TELAPSE       22.78 TCPU       21.72
 TTTTTTTTTTTTTTTTTTTTTTTTTTTTTT MONMO3      TELAPSE       26.09 TCPU       25.02
 NUMERICALLY INTEGRATED DENSITY     14.3997741419     11.6002286537
 TTTTTTTTTTTTTTTTTTTTTTTTTTTTTT NUMDFT      TELAPSE       26.83 TCPU       25.76
 CYC   5 ETOT(AU) -1.263474388806E+03 DETOT -1.16E-03 tst  2.77E-05 PX  8.99E-03
 ANDERSON MIX: BETA=  -4.054337197098E-01
 TTTTTTTTTTTTTTTTTTTTTTTTTTTTTT FDIK        TELAPSE       26.83 TCPU       25.77
 POSSIBLY CONDUCTING STATE - EFERMI(AU) -1.3798654E-01 (RES. CHARGE  4.61E-08;IT. 10)
 TTTTTTTTTTTTTTTTTTTTTTTTTTTTTT PDIG        TELAPSE       26.86 TCPU       25.79
 CHARGE NORMALIZATION FACTOR   1.00000000
 TOTAL ATOMIC CHARGES:
  26.0000000
 SUMMED SPIN DENSITY           2.75541823
 TOTAL ATOMIC SPINS  :
   2.7554182
 TTTTTTTTTTTTTTTTTTTTTTTTTTTTTT MOQGAD      TELAPSE       26.86 TCPU       25.79
 TTTTTTTTTTTTTTTTTTTTTTTTTTTTTT SHELLX      TELAPSE       27.07 TCPU       26.00
 TTTTTTTTTTTTTTTTTTTTTTTTTTTTTT MONMO3      TELAPSE       30.36 TCPU       29.30
 NUMERICALLY INTEGRATED DENSITY     14.3777103814     11.6222924014
 TTTTTTTTTTTTTTTTTTTTTTTTTTTTTT NUMDFT      TELAPSE       31.10 TCPU       30.03
 CYC   6 ETOT(AU) -1.263474978626E+03 DETOT -5.90E-04 tst  2.38E-05 PX  6.62E-03
 ANDERSON MIX: BETA=   1.085286979676E-01
 TTTTTTTTTTTTTTTTTTTTTTTTTTTTTT FDIK        TELAPSE       31.11 TCPU       30.04
 POSSIBLY CONDUCTING STATE - EFERMI(AU) -1.3819743E-01 (RES. CHARGE  1.73E-09;IT. 10)
 TTTTTTTTTTTTTTTTTTTTTTTTTTTTTT PDIG        TELAPSE       31.13 TCPU       30.06
 CHARGE NORMALIZATION FACTOR   1.00000000
 TOTAL ATOMIC CHARGES:
  26.0000000
 SUMMED SPIN DENSITY           2.74321647
 TOTAL ATOMIC SPINS  :
   2.7432165
 TTTTTTTTTTTTTTTTTTTTTTTTTTTTTT MOQGAD      TELAPSE       31.13 TCPU       30.07
 TTTTTTTTTTTTTTTTTTTTTTTTTTTTTT SHELLX      TELAPSE       31.34 TCPU       30.27
 TTTTTTTTTTTTTTTTTTTTTTTTTTTTTT MONMO3      TELAPSE       34.64 TCPU       33.57
 NUMERICALLY INTEGRATED DENSITY     14.3716094949     11.6283932841
 TTTTTTTTTTTTTTTTTTTTTTTTTTTTTT NUMDFT      TELAPSE       35.37 TCPU       34.31
 CYC   7 ETOT(AU) -1.263475041201E+03 DETOT -6.26E-05 tst  2.78E-06 PX  2.32E-03
 ANDERSON MIX: BETA=  -3.199783338886E+00
 TTTTTTTTTTTTTTTTTTTTTTTTTTTTTT FDIK        TELAPSE       35.38 TCPU       34.31
 POSSIBLY CONDUCTING STATE - EFERMI(AU) -1.3871058E-01 (RES. CHARGE  5.48E-09;IT. 10)
 TTTTTTTTTTTTTTTTTTTTTTTTTTTTTT PDIG        TELAPSE       35.40 TCPU       34.34
 CHARGE NORMALIZATION FACTOR   1.00000000
 TOTAL ATOMIC CHARGES:
  26.0000000
 SUMMED SPIN DENSITY           2.70488806
 TOTAL ATOMIC SPINS  :
   2.7048881
 TTTTTTTTTTTTTTTTTTTTTTTTTTTTTT MOQGAD      TELAPSE       35.41 TCPU       34.34
 TTTTTTTTTTTTTTTTTTTTTTTTTTTTTT SHELLX      TELAPSE       35.61 TCPU       34.55
 TTTTTTTTTTTTTTTTTTTTTTTTTTTTTT MONMO3      TELAPSE       38.91 TCPU       37.85
 NUMERICALLY INTEGRATED DENSITY     14.3524452799     11.6475574868
 TTTTTTTTTTTTTTTTTTTTTTTTTTTTTT NUMDFT      TELAPSE       39.65 TCPU       38.58
 CYC   8 ETOT(AU) -1.263475097505E+03 DETOT -5.63E-05 tst  3.37E-05 PX  7.85E-03
 ANDERSON MIX: BETA=  -8.554798273820E-03
 TTTTTTTTTTTTTTTTTTTTTTTTTTTTTT FDIK        TELAPSE       39.65 TCPU       38.59
 POSSIBLY CONDUCTING STATE - EFERMI(AU) -1.3868907E-01 (RES. CHARGE  4.24E-11;IT.  4)
 TTTTTTTTTTTTTTTTTTTTTTTTTTTTTT PDIG        TELAPSE       39.68 TCPU       38.61
 CHARGE NORMALIZATION FACTOR   1.00000000
 TOTAL ATOMIC CHARGES:
  26.0000000
 SUMMED SPIN DENSITY           2.70518570
 TOTAL ATOMIC SPINS  :
   2.7051857
 TTTTTTTTTTTTTTTTTTTTTTTTTTTTTT MOQGAD      TELAPSE       39.68 TCPU       38.62
 TTTTTTTTTTTTTTTTTTTTTTTTTTTTTT SHELLX      TELAPSE       39.89 TCPU       38.82
 TTTTTTTTTTTTTTTTTTTTTTTTTTTTTT MONMO3      TELAPSE       43.18 TCPU       42.12
 NUMERICALLY INTEGRATED DENSITY     14.3525941008     11.6474086654
 TTTTTTTTTTTTTTTTTTTTTTTTTTTTTT NUMDFT      TELAPSE       43.93 TCPU       42.87
 CYC   9 ETOT(AU) -1.263475061626E+03 DETOT  3.59E-05 tst  8.99E-08 PX  3.12E-04
 ANDERSON MIX: BETA=  -1.320381968312E+00
 TTTTTTTTTTTTTTTTTTTTTTTTTTTTTT FDIK        TELAPSE       43.94 TCPU       42.87
 POSSIBLY CONDUCTING STATE - EFERMI(AU) -1.3868666E-01 (RES. CHARGE  3.34E-13;IT.  4)
 TTTTTTTTTTTTTTTTTTTTTTTTTTTTTT PDIG        TELAPSE       43.96 TCPU       42.89
 CHARGE NORMALIZATION FACTOR   1.00000000
 TOTAL ATOMIC CHARGES:
  26.0000000
 SUMMED SPIN DENSITY           2.70557931
 TOTAL ATOMIC SPINS  :
   2.7055793
 TTTTTTTTTTTTTTTTTTTTTTTTTTTTTT MOQGAD      TELAPSE       43.96 TCPU       42.90
 TTTTTTTTTTTTTTTTTTTTTTTTTTTTTT SHELLX      TELAPSE       44.17 TCPU       43.10
 TTTTTTTTTTTTTTTTTTTTTTTTTTTTTT MONMO3      TELAPSE       47.47 TCPU       46.40
 NUMERICALLY INTEGRATED DENSITY     14.3527909081     11.6472118574
 TTTTTTTTTTTTTTTTTTTTTTTTTTTTTT NUMDFT      TELAPSE       48.21 TCPU       47.14
 CYC  10 ETOT(AU) -1.263475010435E+03 DETOT  5.12E-05 tst  2.13E-07 PX  4.92E-04
 ANDERSON MIX: BETA=   1.505085923429E-01
 TTTTTTTTTTTTTTTTTTTTTTTTTTTTTT FDIK        TELAPSE       48.21 TCPU       47.15
 POSSIBLY CONDUCTING STATE - EFERMI(AU) -1.3870956E-01 (RES. CHARGE  4.65E-08;IT.  8)
 TTTTTTTTTTTTTTTTTTTTTTTTTTTTTT PDIG        TELAPSE       48.24 TCPU       47.17
 CHARGE NORMALIZATION FACTOR   1.00000000
 TOTAL ATOMIC CHARGES:
  26.0000000
 SUMMED SPIN DENSITY           2.70554563
 TOTAL ATOMIC SPINS  :
   2.7055456
 TTTTTTTTTTTTTTTTTTTTTTTTTTTTTT MOQGAD      TELAPSE       48.24 TCPU       47.17
 TTTTTTTTTTTTTTTTTTTTTTTTTTTTTT SHELLX      TELAPSE       48.44 TCPU       47.38
 TTTTTTTTTTTTTTTTTTTTTTTTTTTTTT MONMO3      TELAPSE       51.75 TCPU       50.68
 NUMERICALLY INTEGRATED DENSITY     14.3527740693     11.6472286962
 TTTTTTTTTTTTTTTTTTTTTTTTTTTTTT NUMDFT      TELAPSE       52.49 TCPU       51.42
 CYC  11 ETOT(AU) -1.263475010989E+03 DETOT -5.54E-07 tst  3.35E-10 PX  2.03E-05
 ANDERSON MIX: BETA=   1.840052407435E-01
 TTTTTTTTTTTTTTTTTTTTTTTTTTTTTT FDIK        TELAPSE       52.49 TCPU       51.43
 POSSIBLY CONDUCTING STATE - EFERMI(AU) -1.3871458E-01 (RES. CHARGE  1.02E-08;IT.  8)
 TTTTTTTTTTTTTTTTTTTTTTTTTTTTTT PDIG        TELAPSE       52.52 TCPU       51.45
 CHARGE NORMALIZATION FACTOR   1.00000000
 TOTAL ATOMIC CHARGES:
  26.0000000
 SUMMED SPIN DENSITY           2.70554086
 TOTAL ATOMIC SPINS  :
   2.7055409
 TTTTTTTTTTTTTTTTTTTTTTTTTTTTTT MOQGAD      TELAPSE       52.52 TCPU       51.46
 TTTTTTTTTTTTTTTTTTTTTTTTTTTTTT SHELLX      TELAPSE       52.72 TCPU       51.66
 TTTTTTTTTTTTTTTTTTTTTTTTTTTTTT MONMO3      TELAPSE       56.03 TCPU       54.96
 NUMERICALLY INTEGRATED DENSITY     14.3527716806     11.6472310848
 TTTTTTTTTTTTTTTTTTTTTTTTTTTTTT NUMDFT      TELAPSE       56.76 TCPU       55.70
 CYC  12 ETOT(AU) -1.263475007886E+03 DETOT  3.10E-06 tst  2.09E-09 PX  5.69E-05
 ANDERSON MIX: BETA=   5.533906037370E-02
 TTTTTTTTTTTTTTTTTTTTTTTTTTTTTT FDIK        TELAPSE       56.77 TCPU       55.71
 POSSIBLY CONDUCTING STATE - EFERMI(AU) -1.3872283E-01 (RES. CHARGE  1.67E-08;IT.  8)
 TTTTTTTTTTTTTTTTTTTTTTTTTTTTTT PDIG        TELAPSE       56.79 TCPU       55.73
 CHARGE NORMALIZATION FACTOR   1.00000000
 TOTAL ATOMIC CHARGES:
  26.0000000
 SUMMED SPIN DENSITY           2.70551752
 TOTAL ATOMIC SPINS  :
   2.7055175
 TTTTTTTTTTTTTTTTTTTTTTTTTTTTTT MOQGAD      TELAPSE       56.80 TCPU       55.74
 TTTTTTTTTTTTTTTTTTTTTTTTTTTTTT SHELLX      TELAPSE       57.00 TCPU       55.94
 TTTTTTTTTTTTTTTTTTTTTTTTTTTTTT MONMO3      TELAPSE       60.30 TCPU       59.24
 NUMERICALLY INTEGRATED DENSITY     14.3527600124     11.6472427530
 TTTTTTTTTTTTTTTTTTTTTTTTTTTTTT NUMDFT      TELAPSE       61.04 TCPU       59.98
 CYC  13 ETOT(AU) -1.263475005133E+03 DETOT  2.75E-06 tst  9.45E-10 PX  3.92E-05
 ANDERSON MIX: BETA=  -1.134302559285E-01
 TTTTTTTTTTTTTTTTTTTTTTTTTTTTTT FDIK        TELAPSE       61.05 TCPU       59.98
 POSSIBLY CONDUCTING STATE - EFERMI(AU) -1.3872655E-01 (RES. CHARGE  7.52E-09;IT.  8)
 TTTTTTTTTTTTTTTTTTTTTTTTTTTTTT PDIG        TELAPSE       61.07 TCPU       60.00
 CHARGE NORMALIZATION FACTOR   1.00000000
 TOTAL ATOMIC CHARGES:
  26.0000000
 SUMMED SPIN DENSITY           2.70548671
 TOTAL ATOMIC SPINS  :
   2.7054867
 TTTTTTTTTTTTTTTTTTTTTTTTTTTTTT MOQGAD      TELAPSE       61.07 TCPU       60.01
 TTTTTTTTTTTTTTTTTTTTTTTTTTTTTT SHELLX      TELAPSE       61.28 TCPU       60.22
 TTTTTTTTTTTTTTTTTTTTTTTTTTTTTT MONMO3      TELAPSE       64.58 TCPU       63.52
 NUMERICALLY INTEGRATED DENSITY     14.3527446054     11.6472581599
 TTTTTTTTTTTTTTTTTTTTTTTTTTTTTT NUMDFT      TELAPSE       65.32 TCPU       64.25
 CYC  14 ETOT(AU) -1.263475003242E+03 DETOT  1.89E-06 tst  6.95E-10 PX  3.50E-05
 ANDERSON MIX: BETA=  -4.607811598046E-01
 TTTTTTTTTTTTTTTTTTTTTTTTTTTTTT FDIK        TELAPSE       65.32 TCPU       64.26
 POSSIBLY CONDUCTING STATE - EFERMI(AU) -1.3873202E-01 (RES. CHARGE  1.11E-08;IT.  8)
 TTTTTTTTTTTTTTTTTTTTTTTTTTTTTT PDIG        TELAPSE       65.35 TCPU       64.28
 CHARGE NORMALIZATION FACTOR   1.00000000
 TOTAL ATOMIC CHARGES:
  26.0000000
 SUMMED SPIN DENSITY           2.70544611
 TOTAL ATOMIC SPINS  :
   2.7054461
 TTTTTTTTTTTTTTTTTTTTTTTTTTTTTT MOQGAD      TELAPSE       65.35 TCPU       64.28
 TTTTTTTTTTTTTTTTTTTTTTTTTTTTTT SHELLX      TELAPSE       65.55 TCPU       64.49
 TTTTTTTTTTTTTTTTTTTTTTTTTTTTTT MONMO3      TELAPSE       68.85 TCPU       67.79
 NUMERICALLY INTEGRATED DENSITY     14.3527243082     11.6472784571
 TTTTTTTTTTTTTTTTTTTTTTTTTTTTTT NUMDFT      TELAPSE       69.60 TCPU       68.53
 CYC  15 ETOT(AU) -1.263475001095E+03 DETOT  2.15E-06 tst  6.60E-10 PX  3.39E-05
 ANDERSON MIX: BETA=   4.178339475816E-01
 TTTTTTTTTTTTTTTTTTTTTTTTTTTTTT FDIK        TELAPSE       69.60 TCPU       68.54
 POSSIBLY CONDUCTING STATE - EFERMI(AU) -1.3873113E-01 (RES. CHARGE  3.44E-08;IT.  3)
 TTTTTTTTTTTTTTTTTTTTTTTTTTTTTT PDIG        TELAPSE       69.62 TCPU       68.56
 CHARGE NORMALIZATION FACTOR   1.00000000
 TOTAL ATOMIC CHARGES:
  26.0000000
 SUMMED SPIN DENSITY           2.70543914
 TOTAL ATOMIC SPINS  :
   2.7054391
 TTTTTTTTTTTTTTTTTTTTTTTTTTTTTT MOQGAD      TELAPSE       69.63 TCPU       68.56
 TTTTTTTTTTTTTTTTTTTTTTTTTTTTTT SHELLX      TELAPSE       69.83 TCPU       68.77
 TTTTTTTTTTTTTTTTTTTTTTTTTTTTTT MONMO3      TELAPSE       73.13 TCPU       72.07
 NUMERICALLY INTEGRATED DENSITY     14.3527208207     11.6472819446
 TTTTTTTTTTTTTTTTTTTTTTTTTTTTTT NUMDFT      TELAPSE       73.87 TCPU       72.81
 CYC  16 ETOT(AU) -1.263475002282E+03 DETOT -1.19E-06 tst  3.68E-12 PX  3.06E-06
 ANDERSON MIX: BETA=  -1.099901417881E-01
 TTTTTTTTTTTTTTTTTTTTTTTTTTTTTT FDIK        TELAPSE       73.88 TCPU       72.82
 POSSIBLY CONDUCTING STATE - EFERMI(AU) -1.3873273E-01 (RES. CHARGE  3.25E-09;IT.  8)
 TTTTTTTTTTTTTTTTTTTTTTTTTTTTTT PDIG        TELAPSE       73.90 TCPU       72.84
 CHARGE NORMALIZATION FACTOR   1.00000000
 TOTAL ATOMIC CHARGES:
  26.0000000
 SUMMED SPIN DENSITY           2.70541839
 TOTAL ATOMIC SPINS  :
   2.7054184
 TTTTTTTTTTTTTTTTTTTTTTTTTTTTTT MOQGAD      TELAPSE       73.91 TCPU       72.84
 TTTTTTTTTTTTTTTTTTTTTTTTTTTTTT SHELLX      TELAPSE       74.11 TCPU       73.05
 TTTTTTTTTTTTTTTTTTTTTTTTTTTTTT MONMO3      TELAPSE       77.41 TCPU       76.35
 NUMERICALLY INTEGRATED DENSITY     14.3527104482     11.6472923171
 TTTTTTTTTTTTTTTTTTTTTTTTTTTTTT NUMDFT      TELAPSE       78.15 TCPU       77.09
 CYC  17 ETOT(AU) -1.263475000488E+03 DETOT  1.79E-06 tst  9.00E-11 PX  1.28E-05
 ANDERSON MIX: BETA=   3.784106187637E-02
 TTTTTTTTTTTTTTTTTTTTTTTTTTTTTT FDIK        TELAPSE       78.16 TCPU       77.09
 POSSIBLY CONDUCTING STATE - EFERMI(AU) -1.3873315E-01 (RES. CHARGE  3.30E-08;IT.  6)
 TTTTTTTTTTTTTTTTTTTTTTTTTTTTTT PDIG        TELAPSE       78.18 TCPU       77.12
 CHARGE NORMALIZATION FACTOR   1.00000000
 TOTAL ATOMIC CHARGES:
  26.0000000
 SUMMED SPIN DENSITY           2.70540277
 TOTAL ATOMIC SPINS  :
   2.7054028
 TTTTTTTTTTTTTTTTTTTTTTTTTTTTTT MOQGAD      TELAPSE       78.19 TCPU       77.12
 TTTTTTTTTTTTTTTTTTTTTTTTTTTTTT SHELLX      TELAPSE       78.39 TCPU       77.32
 TTTTTTTTTTTTTTTTTTTTTTTTTTTTTT MONMO3      TELAPSE       81.69 TCPU       80.63
 NUMERICALLY INTEGRATED DENSITY     14.3527026380     11.6473001273
 TTTTTTTTTTTTTTTTTTTTTTTTTTTTTT NUMDFT      TELAPSE       82.43 TCPU       81.37
 CYC  18 ETOT(AU) -1.263474999163E+03 DETOT  1.33E-06 tst  4.21E-11 PX  9.00E-06
 ANDERSON MIX: BETA=  -4.893736885923E-01
 TTTTTTTTTTTTTTTTTTTTTTTTTTTTTT FDIK        TELAPSE       82.50 TCPU       81.43
 POSSIBLY CONDUCTING STATE - EFERMI(AU) -1.3873436E-01 (RES. CHARGE  9.59E-08;IT.  6)
 TTTTTTTTTTTTTTTTTTTTTTTTTTTTTT PDIG        TELAPSE       82.52 TCPU       81.46
 CHARGE NORMALIZATION FACTOR   1.00000000
 TOTAL ATOMIC CHARGES:
  26.0000000
 SUMMED SPIN DENSITY           2.70538357
 TOTAL ATOMIC SPINS  :
   2.7053836
 TTTTTTTTTTTTTTTTTTTTTTTTTTTTTT MOQGAD      TELAPSE       82.52 TCPU       81.46
 TTTTTTTTTTTTTTTTTTTTTTTTTTTTTT SHELLX      TELAPSE       82.73 TCPU       81.67
 TTTTTTTTTTTTTTTTTTTTTTTTTTTTTT MONMO3      TELAPSE       86.03 TCPU       84.97
 NUMERICALLY INTEGRATED DENSITY     14.3526930367     11.6473097286
 TTTTTTTTTTTTTTTTTTTTTTTTTTTTTT NUMDFT      TELAPSE       86.77 TCPU       85.71
 CYC  19 ETOT(AU) -1.263474996827E+03 DETOT  2.34E-06 tst  5.54E-11 PX  1.01E-05
 ANDERSON MIX: BETA=   4.913086932711E-01
 TTTTTTTTTTTTTTTTTTTTTTTTTTTTTT FDIK        TELAPSE       86.77 TCPU       85.71
 POSSIBLY CONDUCTING STATE - EFERMI(AU) -1.3873412E-01 (RES. CHARGE  9.12E-09;IT.  3)
 TTTTTTTTTTTTTTTTTTTTTTTTTTTTTT PDIG        TELAPSE       86.79 TCPU       85.73
 CHARGE NORMALIZATION FACTOR   1.00000000
 TOTAL ATOMIC CHARGES:
  26.0000000
 SUMMED SPIN DENSITY           2.70538208
 TOTAL ATOMIC SPINS  :
   2.7053821
 TTTTTTTTTTTTTTTTTTTTTTTTTTTTTT MOQGAD      TELAPSE       86.80 TCPU       85.74
 TTTTTTTTTTTTTTTTTTTTTTTTTTTTTT SHELLX      TELAPSE       87.00 TCPU       85.94
 TTTTTTTTTTTTTTTTTTTTTTTTTTTTTT MONMO3      TELAPSE       90.30 TCPU       89.24
 NUMERICALLY INTEGRATED DENSITY     14.3526922907     11.6473104745
 TTTTTTTTTTTTTTTTTTTTTTTTTTTTTT NUMDFT      TELAPSE       91.04 TCPU       89.98
 CYC  20 ETOT(AU) -1.263474999822E+03 DETOT -2.99E-06 tst  1.65E-13 PX  6.47E-07
 ANDERSON MIX: BETA=  -4.210279669402E-01
 TTTTTTTTTTTTTTTTTTTTTTTTTTTTTT FDIK        TELAPSE       91.05 TCPU       89.99
 POSSIBLY CONDUCTING STATE - EFERMI(AU) -1.3873455E-01 (RES. CHARGE  3.47E-08;IT.  6)
 TTTTTTTTTTTTTTTTTTTTTTTTTTTTTT PDIG        TELAPSE       91.07 TCPU       90.01
 CHARGE NORMALIZATION FACTOR   1.00000000
 TOTAL ATOMIC CHARGES:
  26.0000000
 SUMMED SPIN DENSITY           2.70537304
 TOTAL ATOMIC SPINS  :
   2.7053730
 TTTTTTTTTTTTTTTTTTTTTTTTTTTTTT MOQGAD      TELAPSE       91.08 TCPU       90.01
 TTTTTTTTTTTTTTTTTTTTTTTTTTTTTT SHELLX      TELAPSE       91.28 TCPU       90.22
 TTTTTTTTTTTTTTTTTTTTTTTTTTTTTT MONMO3      TELAPSE       94.58 TCPU       93.52
 NUMERICALLY INTEGRATED DENSITY     14.3526877696     11.6473149957
 TTTTTTTTTTTTTTTTTTTTTTTTTTTTTT NUMDFT      TELAPSE       95.32 TCPU       94.25
 CYC  21 ETOT(AU) -1.263474998349E+03 DETOT  1.47E-06 tst  9.90E-12 PX  4.30E-06
 ANDERSON MIX: BETA=   1.113887708957E-01
 TTTTTTTTTTTTTTTTTTTTTTTTTTTTTT FDIK        TELAPSE       95.32 TCPU       94.26
 POSSIBLY CONDUCTING STATE - EFERMI(AU) -1.3873458E-01 (RES. CHARGE  3.84E-08;IT.  2)
 TTTTTTTTTTTTTTTTTTTTTTTTTTTTTT PDIG        TELAPSE       95.35 TCPU       94.29
 CHARGE NORMALIZATION FACTOR   1.00000000
 TOTAL ATOMIC CHARGES:
  26.0000000
 SUMMED SPIN DENSITY           2.70536736
 TOTAL ATOMIC SPINS  :
   2.7053674
 TTTTTTTTTTTTTTTTTTTTTTTTTTTTTT MOQGAD      TELAPSE       95.35 TCPU       94.29
 TTTTTTTTTTTTTTTTTTTTTTTTTTTTTT SHELLX      TELAPSE       95.56 TCPU       94.49
 TTTTTTTTTTTTTTTTTTTTTTTTTTTTTT MONMO3      TELAPSE       98.86 TCPU       97.79
 NUMERICALLY INTEGRATED DENSITY     14.3526849296     11.6473178356
 TTTTTTTTTTTTTTTTTTTTTTTTTTTTTT NUMDFT      TELAPSE       99.59 TCPU       98.53
 CYC  22 ETOT(AU) -1.263474998116E+03 DETOT  2.33E-07 tst  3.66E-12 PX  2.69E-06
 ANDERSON MIX: BETA=  -3.306852239558E-01
 TTTTTTTTTTTTTTTTTTTTTTTTTTTTTT FDIK        TELAPSE       99.60 TCPU       98.54
 POSSIBLY CONDUCTING STATE - EFERMI(AU) -1.3873492E-01 (RES. CHARGE  2.70E-08;IT.  6)
 TTTTTTTTTTTTTTTTTTTTTTTTTTTTTT PDIG        TELAPSE       99.62 TCPU       98.56
 CHARGE NORMALIZATION FACTOR   1.00000000
 TOTAL ATOMIC CHARGES:
  26.0000000
 SUMMED SPIN DENSITY           2.70536080
 TOTAL ATOMIC SPINS  :
   2.7053608
 TTTTTTTTTTTTTTTTTTTTTTTTTTTTTT MOQGAD      TELAPSE       99.63 TCPU       98.57
 TTTTTTTTTTTTTTTTTTTTTTTTTTTTTT SHELLX      TELAPSE       99.83 TCPU       98.77
 TTTTTTTTTTTTTTTTTTTTTTTTTTTTTT MONMO3      TELAPSE      103.13 TCPU      102.07
 NUMERICALLY INTEGRATED DENSITY     14.3526816532     11.6473211120
 TTTTTTTTTTTTTTTTTTTTTTTTTTTTTT NUMDFT      TELAPSE      103.87 TCPU      102.81
 CYC  23 ETOT(AU) -1.263474998303E+03 DETOT -1.86E-07 tst  4.69E-12 PX  2.93E-06
 ANDERSON MIX: BETA=   6.361086842880E-01
 TTTTTTTTTTTTTTTTTTTTTTTTTTTTTT FDIK        TELAPSE      103.88 TCPU      102.81
 POSSIBLY CONDUCTING STATE - EFERMI(AU) -1.3873485E-01 (RES. CHARGE  2.52E-09;IT.  3)
 TTTTTTTTTTTTTTTTTTTTTTTTTTTTTT PDIG        TELAPSE      103.90 TCPU      102.84
 CHARGE NORMALIZATION FACTOR   1.00000000
 TOTAL ATOMIC CHARGES:
  26.0000000
 SUMMED SPIN DENSITY           2.70536044
 TOTAL ATOMIC SPINS  :
   2.7053604
 TTTTTTTTTTTTTTTTTTTTTTTTTTTTTT MOQGAD      TELAPSE      103.90 TCPU      102.84
 TTTTTTTTTTTTTTTTTTTTTTTTTTTTTT SHELLX      TELAPSE      104.11 TCPU      103.05
 TTTTTTTTTTTTTTTTTTTTTTTTTTTTTT MONMO3      TELAPSE      107.41 TCPU      106.35
 NUMERICALLY INTEGRATED DENSITY     14.3526814740     11.6473212912
 TTTTTTTTTTTTTTTTTTTTTTTTTTTTTT NUMDFT      TELAPSE      108.15 TCPU      107.09
 CYC  24 ETOT(AU) -1.263474999145E+03 DETOT -8.42E-07 tst  1.04E-14 PX  1.64E-07
 ANDERSON MIX: BETA=  -1.027921899814E+00
 TTTTTTTTTTTTTTTTTTTTTTTTTTTTTT FDIK        TELAPSE      108.15 TCPU      107.09
 POSSIBLY CONDUCTING STATE - EFERMI(AU) -1.3873498E-01 (RES. CHARGE  8.30E-08;IT.  4)
 TTTTTTTTTTTTTTTTTTTTTTTTTTTTTT PDIG        TELAPSE      108.18 TCPU      107.12
 CHARGE NORMALIZATION FACTOR   1.00000000
 TOTAL ATOMIC CHARGES:
  26.0000000
 SUMMED SPIN DENSITY           2.70535665
 TOTAL ATOMIC SPINS  :
   2.7053567
 TTTTTTTTTTTTTTTTTTTTTTTTTTTTTT MOQGAD      TELAPSE      108.18 TCPU      107.12
 TTTTTTTTTTTTTTTTTTTTTTTTTTTTTT SHELLX      TELAPSE      108.39 TCPU      107.33
 TTTTTTTTTTTTTTTTTTTTTTTTTTTTTT MONMO3      TELAPSE      111.69 TCPU      110.63
 NUMERICALLY INTEGRATED DENSITY     14.3526795775     11.6473231877
 TTTTTTTTTTTTTTTTTTTTTTTTTTTTTT NUMDFT      TELAPSE      112.43 TCPU      111.37
 CYC  25 ETOT(AU) -1.263474996614E+03 DETOT  2.53E-06 tst  1.39E-12 PX  1.62E-06
 ANDERSON MIX: BETA=  -2.759670153103E+00
 TTTTTTTTTTTTTTTTTTTTTTTTTTTTTT FDIK        TELAPSE      112.43 TCPU      111.37
 POSSIBLY CONDUCTING STATE - EFERMI(AU) -1.3873520E-01 (RES. CHARGE  1.79E-08;IT.  6)
 TTTTTTTTTTTTTTTTTTTTTTTTTTTTTT PDIG        TELAPSE      112.46 TCPU      111.39
 CHARGE NORMALIZATION FACTOR   1.00000000
 TOTAL ATOMIC CHARGES:
  26.0000000
 SUMMED SPIN DENSITY           2.70534632
 TOTAL ATOMIC SPINS  :
   2.7053463
 TTTTTTTTTTTTTTTTTTTTTTTTTTTTTT MOQGAD      TELAPSE      112.46 TCPU      111.40
 TTTTTTTTTTTTTTTTTTTTTTTTTTTTTT SHELLX      TELAPSE      112.67 TCPU      111.61
 TTTTTTTTTTTTTTTTTTTTTTTTTTTTTT MONMO3      TELAPSE      115.97 TCPU      114.91
 NUMERICALLY INTEGRATED DENSITY     14.3526744145     11.6473283507
 TTTTTTTTTTTTTTTTTTTTTTTTTTTTTT NUMDFT      TELAPSE      116.71 TCPU      115.65
 CYC  26 ETOT(AU) -1.263474998284E+03 DETOT -1.67E-06 tst  1.02E-11 PX  4.39E-06
 ANDERSON MIX: BETA=   1.411785921714E-02
 TTTTTTTTTTTTTTTTTTTTTTTTTTTTTT FDIK        TELAPSE      116.71 TCPU      115.65
 POSSIBLY CONDUCTING STATE - EFERMI(AU) -1.3873519E-01 (RES. CHARGE  3.06E-08;IT.  2)
 TTTTTTTTTTTTTTTTTTTTTTTTTTTTTT PDIG        TELAPSE      116.74 TCPU      115.68
 CHARGE NORMALIZATION FACTOR   1.00000000
 TOTAL ATOMIC CHARGES:
  26.0000000
 SUMMED SPIN DENSITY           2.70534645
 TOTAL ATOMIC SPINS  :
   2.7053464
 TTTTTTTTTTTTTTTTTTTTTTTTTTTTTT MOQGAD      TELAPSE      116.74 TCPU      115.68
 TTTTTTTTTTTTTTTTTTTTTTTTTTTTTT SHELLX      TELAPSE      116.94 TCPU      115.88
 TTTTTTTTTTTTTTTTTTTTTTTTTTTTTT MONMO3      TELAPSE      120.24 TCPU      119.18
 NUMERICALLY INTEGRATED DENSITY     14.3526744763     11.6473282889
 TTTTTTTTTTTTTTTTTTTTTTTTTTTTTT NUMDFT      TELAPSE      120.98 TCPU      119.92
 CYC  27 ETOT(AU) -1.263474997924E+03 DETOT  3.60E-07 tst  5.33E-15 PX  9.43E-08
 ANDERSON MIX: BETA=  -6.170240837992E-02
 TTTTTTTTTTTTTTTTTTTTTTTTTTTTTT FDIK        TELAPSE      120.99 TCPU      119.93
 POSSIBLY CONDUCTING STATE - EFERMI(AU) -1.3873519E-01 (RES. CHARGE  8.16E-08;IT.  0)
 TTTTTTTTTTTTTTTTTTTTTTTTTTTTTT PDIG        TELAPSE      121.01 TCPU      119.95
 CHARGE NORMALIZATION FACTOR   1.00000000
 TOTAL ATOMIC CHARGES:
  26.0000000
 SUMMED SPIN DENSITY           2.70534642
 TOTAL ATOMIC SPINS  :
   2.7053464
 TTTTTTTTTTTTTTTTTTTTTTTTTTTTTT MOQGAD      TELAPSE      121.01 TCPU      119.96
 TTTTTTTTTTTTTTTTTTTTTTTTTTTTTT SHELLX      TELAPSE      121.22 TCPU      120.16
 TTTTTTTTTTTTTTTTTTTTTTTTTTTTTT MONMO3      TELAPSE      124.52 TCPU      123.46
 NUMERICALLY INTEGRATED DENSITY     14.3526744633     11.6473283019
 TTTTTTTTTTTTTTTTTTTTTTTTTTTTTT NUMDFT      TELAPSE      125.26 TCPU      124.20
 CYC  28 ETOT(AU) -1.263474996463E+03 DETOT  1.46E-06 tst  3.73E-15 PX  2.02E-08
 ANDERSON MIX: BETA=   5.824885163045E-01
 TTTTTTTTTTTTTTTTTTTTTTTTTTTTTT FDIK        TELAPSE      125.26 TCPU      124.20
 POSSIBLY CONDUCTING STATE - EFERMI(AU) -1.3873519E-01 (RES. CHARGE  9.33E-08;IT.  0)
 TTTTTTTTTTTTTTTTTTTTTTTTTTTTTT PDIG        TELAPSE      125.29 TCPU      124.22
 CHARGE NORMALIZATION FACTOR   1.00000000
 TOTAL ATOMIC CHARGES:
  26.0000000
 SUMMED SPIN DENSITY           2.70534641
 TOTAL ATOMIC SPINS  :
   2.7053464
 TTTTTTTTTTTTTTTTTTTTTTTTTTTTTT MOQGAD      TELAPSE      125.29 TCPU      124.23
 TTTTTTTTTTTTTTTTTTTTTTTTTTTTTT SHELLX      TELAPSE      125.49 TCPU      124.43
 TTTTTTTTTTTTTTTTTTTTTTTTTTTTTT MONMO3      TELAPSE      128.79 TCPU      127.73
 NUMERICALLY INTEGRATED DENSITY     14.3526744571     11.6473283081
 TTTTTTTTTTTTTTTTTTTTTTTTTTTTTT NUMDFT      TELAPSE      129.53 TCPU      128.47
 CYC  29 ETOT(AU) -1.263474996128E+03 DETOT  3.35E-07 tst  3.72E-15 PX  8.83E-09
 ANDERSON MIX: BETA=  -1.253575856601E+00
 TTTTTTTTTTTTTTTTTTTTTTTTTTTTTT FDIK        TELAPSE      129.54 TCPU      128.48
 POSSIBLY CONDUCTING STATE - EFERMI(AU) -1.3873519E-01 (RES. CHARGE  4.89E-08;IT.  0)
 TTTTTTTTTTTTTTTTTTTTTTTTTTTTTT PDIG        TELAPSE      129.56 TCPU      128.50
 CHARGE NORMALIZATION FACTOR   1.00000000
 TOTAL ATOMIC CHARGES:
  26.0000000
 SUMMED SPIN DENSITY           2.70534643
 TOTAL ATOMIC SPINS  :
   2.7053464
 TTTTTTTTTTTTTTTTTTTTTTTTTTTTTT MOQGAD      TELAPSE      129.57 TCPU      128.51
 TTTTTTTTTTTTTTTTTTTTTTTTTTTTTT SHELLX      TELAPSE      129.77 TCPU      128.71
 TTTTTTTTTTTTTTTTTTTTTTTTTTTTTT MONMO3      TELAPSE      133.07 TCPU      132.01
 NUMERICALLY INTEGRATED DENSITY     14.3526744694     11.6473282958
 TTTTTTTTTTTTTTTTTTTTTTTTTTTTTT NUMDFT      TELAPSE      133.81 TCPU      132.75
 CYC  30 ETOT(AU) -1.263474997405E+03 DETOT -1.28E-06 tst  3.14E-15 PX  1.92E-08
 ANDERSON MIX: BETA=   5.193861721527E-01
 TTTTTTTTTTTTTTTTTTTTTTTTTTTTTT FDIK        TELAPSE      133.82 TCPU      132.76
 POSSIBLY CONDUCTING STATE - EFERMI(AU) -1.3873519E-01 (RES. CHARGE  5.13E-08;IT.  0)
 TTTTTTTTTTTTTTTTTTTTTTTTTTTTTT PDIG        TELAPSE      133.84 TCPU      132.78
 CHARGE NORMALIZATION FACTOR   1.00000000
 TOTAL ATOMIC CHARGES:
  26.0000000
 SUMMED SPIN DENSITY           2.70534644
 TOTAL ATOMIC SPINS  :
   2.7053464
 TTTTTTTTTTTTTTTTTTTTTTTTTTTTTT MOQGAD      TELAPSE      133.84 TCPU      132.78
 TTTTTTTTTTTTTTTTTTTTTTTTTTTTTT SHELLX      TELAPSE      134.05 TCPU      132.99
 TTTTTTTTTTTTTTTTTTTTTTTTTTTTTT MONMO3      TELAPSE      137.35 TCPU      136.29
 NUMERICALLY INTEGRATED DENSITY     14.3526744719     11.6473282933
 TTTTTTTTTTTTTTTTTTTTTTTTTTTTTT NUMDFT      TELAPSE      138.08 TCPU      137.02
 CYC  31 ETOT(AU) -1.263474997336E+03 DETOT  6.90E-08 tst  3.13E-15 PX  1.53E-09
 ANDERSON MIX: BETA=  -9.798721843883E-01
 TTTTTTTTTTTTTTTTTTTTTTTTTTTTTT FDIK        TELAPSE      138.09 TCPU      137.03
 POSSIBLY CONDUCTING STATE - EFERMI(AU) -1.3873519E-01 (RES. CHARGE  3.55E-08;IT.  0)
 TTTTTTTTTTTTTTTTTTTTTTTTTTTTTT PDIG        TELAPSE      138.11 TCPU      137.05
 CHARGE NORMALIZATION FACTOR   1.00000000
 TOTAL ATOMIC CHARGES:
  26.0000000
 SUMMED SPIN DENSITY           2.70534646
 TOTAL ATOMIC SPINS  :
   2.7053465
 TTTTTTTTTTTTTTTTTTTTTTTTTTTTTT MOQGAD      TELAPSE      138.12 TCPU      137.06
 TTTTTTTTTTTTTTTTTTTTTTTTTTTTTT SHELLX      TELAPSE      138.32 TCPU      137.26
 TTTTTTTTTTTTTTTTTTTTTTTTTTTTTT MONMO3      TELAPSE      141.62 TCPU      140.56
 NUMERICALLY INTEGRATED DENSITY     14.3526744831     11.6473282821
 TTTTTTTTTTTTTTTTTTTTTTTTTTTTTT NUMDFT      TELAPSE      142.36 TCPU      141.30
 CYC  32 ETOT(AU) -1.263474997790E+03 DETOT -4.55E-07 tst  3.13E-15 PX  1.69E-08
 ANDERSON MIX: BETA=  -4.163696092985E+00
 TTTTTTTTTTTTTTTTTTTTTTTTTTTTTT FDIK        TELAPSE      142.36 TCPU      141.30
 POSSIBLY CONDUCTING STATE - EFERMI(AU) -1.3873519E-01 (RES. CHARGE  3.05E-08;IT.  0)
 TTTTTTTTTTTTTTTTTTTTTTTTTTTTTT PDIG        TELAPSE      142.39 TCPU      141.33
 CHARGE NORMALIZATION FACTOR   1.00000000
 TOTAL ATOMIC CHARGES:
  26.0000000
 SUMMED SPIN DENSITY           2.70534657
 TOTAL ATOMIC SPINS  :
   2.7053466
 TTTTTTTTTTTTTTTTTTTTTTTTTTTTTT MOQGAD      TELAPSE      142.39 TCPU      141.33
 TTTTTTTTTTTTTTTTTTTTTTTTTTTTTT SHELLX      TELAPSE      142.60 TCPU      141.54
 TTTTTTTTTTTTTTTTTTTTTTTTTTTTTT MONMO3      TELAPSE      145.90 TCPU      144.84
 NUMERICALLY INTEGRATED DENSITY     14.3526745379     11.6473282273
 TTTTTTTTTTTTTTTTTTTTTTTTTTTTTT NUMDFT      TELAPSE      146.64 TCPU      145.58
 CYC  33 ETOT(AU) -1.263474999690E+03 DETOT -1.90E-06 tst  3.13E-15 PX  5.66E-08
 ANDERSON MIX: BETA=   1.144827256580E+00
 TTTTTTTTTTTTTTTTTTTTTTTTTTTTTT FDIK        TELAPSE      146.64 TCPU      145.58
 POSSIBLY CONDUCTING STATE - EFERMI(AU) -1.3873519E-01 (RES. CHARGE  3.23E-08;IT.  0)
 TTTTTTTTTTTTTTTTTTTTTTTTTTTTTT PDIG        TELAPSE      146.67 TCPU      145.61
 CHARGE NORMALIZATION FACTOR   1.00000000
 TOTAL ATOMIC CHARGES:
  26.0000000
 SUMMED SPIN DENSITY           2.70534646
 TOTAL ATOMIC SPINS  :
   2.7053465
 TTTTTTTTTTTTTTTTTTTTTTTTTTTTTT MOQGAD      TELAPSE      146.67 TCPU      145.61
 TTTTTTTTTTTTTTTTTTTTTTTTTTTTTT SHELLX      TELAPSE      146.87 TCPU      145.81
 TTTTTTTTTTTTTTTTTTTTTTTTTTTTTT MONMO3      TELAPSE      150.17 TCPU      149.11
 NUMERICALLY INTEGRATED DENSITY     14.3526744843     11.6473282809
 TTTTTTTTTTTTTTTTTTTTTTTTTTTTTT NUMDFT      TELAPSE      150.91 TCPU      149.85
 CYC  34 ETOT(AU) -1.263474997881E+03 DETOT  1.81E-06 tst  3.13E-15 PX  4.12E-08
 ANDERSON MIX: BETA=   1.614846663237E+00
 TTTTTTTTTTTTTTTTTTTTTTTTTTTTTT FDIK        TELAPSE      150.92 TCPU      149.86
 POSSIBLY CONDUCTING STATE - EFERMI(AU) -1.3873518E-01 (RES. CHARGE  3.34E-08;IT.  2)
 TTTTTTTTTTTTTTTTTTTTTTTTTTTTTT PDIG        TELAPSE      150.94 TCPU      149.89
 CHARGE NORMALIZATION FACTOR   1.00000000
 TOTAL ATOMIC CHARGES:
  26.0000000
 SUMMED SPIN DENSITY           2.70534658
 TOTAL ATOMIC SPINS  :
   2.7053466
 TTTTTTTTTTTTTTTTTTTTTTTTTTTTTT MOQGAD      TELAPSE      150.95 TCPU      149.89
 TTTTTTTTTTTTTTTTTTTTTTTTTTTTTT SHELLX      TELAPSE      151.15 TCPU      150.09
 TTTTTTTTTTTTTTTTTTTTTTTTTTTTTT MONMO3      TELAPSE      154.45 TCPU      153.39
 NUMERICALLY INTEGRATED DENSITY     14.3526745400     11.6473282252
 TTTTTTTTTTTTTTTTTTTTTTTTTTTTTT NUMDFT      TELAPSE      155.19 TCPU      154.13
 CYC  35 ETOT(AU) -1.263474997853E+03 DETOT  2.72E-08 tst  3.12E-15 PX  5.33E-08
 ANDERSON MIX: BETA=   7.829668636126E-01
 TTTTTTTTTTTTTTTTTTTTTTTTTTTTTT FDIK        TELAPSE      155.20 TCPU      154.14
 POSSIBLY CONDUCTING STATE - EFERMI(AU) -1.3873519E-01 (RES. CHARGE  1.56E-08;IT.  2)
 TTTTTTTTTTTTTTTTTTTTTTTTTTTTTT PDIG        TELAPSE      155.22 TCPU      154.16
 CHARGE NORMALIZATION FACTOR   1.00000000
 TOTAL ATOMIC CHARGES:
  26.0000000
 SUMMED SPIN DENSITY           2.70534651
 TOTAL ATOMIC SPINS  :
   2.7053465
 TTTTTTTTTTTTTTTTTTTTTTTTTTTTTT MOQGAD      TELAPSE      155.22 TCPU      154.17
 TTTTTTTTTTTTTTTTTTTTTTTTTTTTTT SHELLX      TELAPSE      155.43 TCPU      154.37
 TTTTTTTTTTTTTTTTTTTTTTTTTTTTTT MONMO3      TELAPSE      158.73 TCPU      157.67
 NUMERICALLY INTEGRATED DENSITY     14.3526745056     11.6473282596
 TTTTTTTTTTTTTTTTTTTTTTTTTTTTTT NUMDFT      TELAPSE      159.47 TCPU      158.41
 CYC  36 ETOT(AU) -1.263474998362E+03 DETOT -5.09E-07 tst  3.13E-15 PX  3.21E-08
 ANDERSON MIX: BETA=   1.186314531745E-01
 TTTTTTTTTTTTTTTTTTTTTTTTTTTTTT FDIK        TELAPSE      159.47 TCPU      158.41
 POSSIBLY CONDUCTING STATE - EFERMI(AU) -1.3873519E-01 (RES. CHARGE  8.97E-09;IT.  0)
 TTTTTTTTTTTTTTTTTTTTTTTTTTTTTT PDIG        TELAPSE      159.50 TCPU      158.44
 CHARGE NORMALIZATION FACTOR   1.00000000
 TOTAL ATOMIC CHARGES:
  26.0000000
 SUMMED SPIN DENSITY           2.70534654
 TOTAL ATOMIC SPINS  :
   2.7053465
 TTTTTTTTTTTTTTTTTTTTTTTTTTTTTT MOQGAD      TELAPSE      159.50 TCPU      158.44
 TTTTTTTTTTTTTTTTTTTTTTTTTTTTTT SHELLX      TELAPSE      159.71 TCPU      158.65
 TTTTTTTTTTTTTTTTTTTTTTTTTTTTTT MONMO3      TELAPSE      163.01 TCPU      161.95
 NUMERICALLY INTEGRATED DENSITY     14.3526745211     11.6473282441
 TTTTTTTTTTTTTTTTTTTTTTTTTTTTTT NUMDFT      TELAPSE      163.75 TCPU      162.69
 CYC  37 ETOT(AU) -1.263474999069E+03 DETOT -7.07E-07 tst  3.13E-15 PX  5.53E-09
 ANDERSON MIX: BETA=   1.831358182689E+00
 TTTTTTTTTTTTTTTTTTTTTTTTTTTTTT FDIK        TELAPSE      163.75 TCPU      162.69
 POSSIBLY CONDUCTING STATE - EFERMI(AU) -1.3873519E-01 (RES. CHARGE  1.74E-08;IT.  0)
 TTTTTTTTTTTTTTTTTTTTTTTTTTTTTT PDIG        TELAPSE      163.78 TCPU      162.72
 CHARGE NORMALIZATION FACTOR   1.00000000
 TOTAL ATOMIC CHARGES:
  26.0000000
 SUMMED SPIN DENSITY           2.70534650
 TOTAL ATOMIC SPINS  :
   2.7053465
 TTTTTTTTTTTTTTTTTTTTTTTTTTTTTT MOQGAD      TELAPSE      163.78 TCPU      162.72
 TTTTTTTTTTTTTTTTTTTTTTTTTTTTTT SHELLX      TELAPSE      163.98 TCPU      162.93
 TTTTTTTTTTTTTTTTTTTTTTTTTTTTTT MONMO3      TELAPSE      167.28 TCPU      166.23
 NUMERICALLY INTEGRATED DENSITY     14.3526745038     11.6473282614
 TTTTTTTTTTTTTTTTTTTTTTTTTTTTTT NUMDFT      TELAPSE      168.02 TCPU      166.96
 CYC  38 ETOT(AU) -1.263474998312E+03 DETOT  7.58E-07 tst  3.13E-15 PX  5.86E-09
 ANDERSON MIX: BETA=  -1.438204815273E+00
 TTTTTTTTTTTTTTTTTTTTTTTTTTTTTT FDIK        TELAPSE      168.02 TCPU      166.97
 POSSIBLY CONDUCTING STATE - EFERMI(AU) -1.3873519E-01 (RES. CHARGE  5.02E-08;IT.  0)
 TTTTTTTTTTTTTTTTTTTTTTTTTTTTTT PDIG        TELAPSE      168.05 TCPU      166.99
 CHARGE NORMALIZATION FACTOR   1.00000000
 TOTAL ATOMIC CHARGES:
  26.0000000
 SUMMED SPIN DENSITY           2.70534647
 TOTAL ATOMIC SPINS  :
   2.7053465
 TTTTTTTTTTTTTTTTTTTTTTTTTTTTTT MOQGAD      TELAPSE      168.05 TCPU      166.99
 TTTTTTTTTTTTTTTTTTTTTTTTTTTTTT SHELLX      TELAPSE      168.26 TCPU      167.20
 TTTTTTTTTTTTTTTTTTTTTTTTTTTTTT MONMO3      TELAPSE      171.56 TCPU      170.50
 NUMERICALLY INTEGRATED DENSITY     14.3526744873     11.6473282779
 TTTTTTTTTTTTTTTTTTTTTTTTTTTTTT NUMDFT      TELAPSE      172.29 TCPU      171.23
 CYC  39 ETOT(AU) -1.263474997369E+03 DETOT  9.43E-07 tst  3.13E-15 PX  5.40E-09
 ANDERSON MIX: BETA=  -4.617554358446E-01
 TTTTTTTTTTTTTTTTTTTTTTTTTTTTTT FDIK        TELAPSE      172.30 TCPU      171.24
 POSSIBLY CONDUCTING STATE - EFERMI(AU) -1.3873519E-01 (RES. CHARGE  6.47E-08;IT.  0)
 TTTTTTTTTTTTTTTTTTTTTTTTTTTTTT PDIG        TELAPSE      172.32 TCPU      171.26
 CHARGE NORMALIZATION FACTOR   1.00000000
 TOTAL ATOMIC CHARGES:
  26.0000000
 SUMMED SPIN DENSITY           2.70534647
 TOTAL ATOMIC SPINS  :
   2.7053465
 TTTTTTTTTTTTTTTTTTTTTTTTTTTTTT MOQGAD      TELAPSE      172.33 TCPU      171.27
 TTTTTTTTTTTTTTTTTTTTTTTTTTTTTT SHELLX      TELAPSE      172.53 TCPU      171.47
 TTTTTTTTTTTTTTTTTTTTTTTTTTTTTT MONMO3      TELAPSE      175.83 TCPU      174.77
 NUMERICALLY INTEGRATED DENSITY     14.3526744848     11.6473282805
 TTTTTTTTTTTTTTTTTTTTTTTTTTTTTT NUMDFT      TELAPSE      176.56 TCPU      175.51
 CYC  40 ETOT(AU) -1.263474996951E+03 DETOT  4.18E-07 tst  3.13E-15 PX  1.44E-09
 ANDERSON MIX: BETA=  -3.268844625474E-03
 TTTTTTTTTTTTTTTTTTTTTTTTTTTTTT FDIK        TELAPSE      176.57 TCPU      175.51
 POSSIBLY CONDUCTING STATE - EFERMI(AU) -1.3873519E-01 (RES. CHARGE  6.60E-08;IT.  0)
 TTTTTTTTTTTTTTTTTTTTTTTTTTTTTT PDIG        TELAPSE      176.59 TCPU      175.53
 CHARGE NORMALIZATION FACTOR   1.00000000
 TOTAL ATOMIC CHARGES:
  26.0000000
 SUMMED SPIN DENSITY           2.70534647
 TOTAL ATOMIC SPINS  :
   2.7053465
 TTTTTTTTTTTTTTTTTTTTTTTTTTTTTT MOQGAD      TELAPSE      176.60 TCPU      175.54
 TTTTTTTTTTTTTTTTTTTTTTTTTTTTTT SHELLX      TELAPSE      176.80 TCPU      175.74
 TTTTTTTTTTTTTTTTTTTTTTTTTTTTTT MONMO3      TELAPSE      180.10 TCPU      179.04
 NUMERICALLY INTEGRATED DENSITY     14.3526744878     11.6473282774
 TTTTTTTTTTTTTTTTTTTTTTTTTTTTTT NUMDFT      TELAPSE      180.84 TCPU      179.78
 CYC  41 ETOT(AU) -1.263474996916E+03 DETOT  3.52E-08 tst  3.13E-15 PX  1.17E-09
 ANDERSON MIX: BETA=   5.971465788200E-01
 TTTTTTTTTTTTTTTTTTTTTTTTTTTTTT FDIK        TELAPSE      180.85 TCPU      179.79
 POSSIBLY CONDUCTING STATE - EFERMI(AU) -1.3873519E-01 (RES. CHARGE  6.76E-08;IT.  0)
 TTTTTTTTTTTTTTTTTTTTTTTTTTTTTT PDIG        TELAPSE      180.87 TCPU      179.81
 CHARGE NORMALIZATION FACTOR   1.00000000
 TOTAL ATOMIC CHARGES:
  26.0000000
 SUMMED SPIN DENSITY           2.70534647
 TOTAL ATOMIC SPINS  :
   2.7053465
 TTTTTTTTTTTTTTTTTTTTTTTTTTTTTT MOQGAD      TELAPSE      180.87 TCPU      179.82
 TTTTTTTTTTTTTTTTTTTTTTTTTTTTTT SHELLX      TELAPSE      181.08 TCPU      180.02
 TTTTTTTTTTTTTTTTTTTTTTTTTTTTTT MONMO3      TELAPSE      184.38 TCPU      183.32
 NUMERICALLY INTEGRATED DENSITY     14.3526744882     11.6473282770
 TTTTTTTTTTTTTTTTTTTTTTTTTTTTTT NUMDFT      TELAPSE      185.11 TCPU      184.06
 CYC  42 ETOT(AU) -1.263474996869E+03 DETOT  4.67E-08 tst  3.13E-15 PX  2.17E-10
 ANDERSON MIX: BETA=   2.278642790701E+00
 TTTTTTTTTTTTTTTTTTTTTTTTTTTTTT FDIK        TELAPSE      185.12 TCPU      184.06
 POSSIBLY CONDUCTING STATE - EFERMI(AU) -1.3873519E-01 (RES. CHARGE  6.57E-08;IT.  0)
 TTTTTTTTTTTTTTTTTTTTTTTTTTTTTT PDIG        TELAPSE      185.14 TCPU      184.09
 CHARGE NORMALIZATION FACTOR   1.00000000
 TOTAL ATOMIC CHARGES:
  26.0000000
 SUMMED SPIN DENSITY           2.70534648
 TOTAL ATOMIC SPINS  :
   2.7053465
 TTTTTTTTTTTTTTTTTTTTTTTTTTTTTT MOQGAD      TELAPSE      185.15 TCPU      184.09
 TTTTTTTTTTTTTTTTTTTTTTTTTTTTTT SHELLX      TELAPSE      185.35 TCPU      184.30
 TTTTTTTTTTTTTTTTTTTTTTTTTTTTTT MONMO3      TELAPSE      188.65 TCPU      187.60
 NUMERICALLY INTEGRATED DENSITY     14.3526744895     11.6473282757
 TTTTTTTTTTTTTTTTTTTTTTTTTTTTTT NUMDFT      TELAPSE      189.39 TCPU      188.33
 CYC  43 ETOT(AU) -1.263474996923E+03 DETOT -5.44E-08 tst  3.13E-15 PX  4.17E-10
 ANDERSON MIX: BETA=  -2.548932251035E+00
 TTTTTTTTTTTTTTTTTTTTTTTTTTTTTT FDIK        TELAPSE      189.39 TCPU      188.34
 POSSIBLY CONDUCTING STATE - EFERMI(AU) -1.3873519E-01 (RES. CHARGE  6.13E-08;IT.  0)
 TTTTTTTTTTTTTTTTTTTTTTTTTTTTTT PDIG        TELAPSE      189.42 TCPU      188.36
 CHARGE NORMALIZATION FACTOR   1.00000000
 TOTAL ATOMIC CHARGES:
  26.0000000
 SUMMED SPIN DENSITY           2.70534648
 TOTAL ATOMIC SPINS  :
   2.7053465
 TTTTTTTTTTTTTTTTTTTTTTTTTTTTTT MOQGAD      TELAPSE      189.42 TCPU      188.36
 TTTTTTTTTTTTTTTTTTTTTTTTTTTTTT SHELLX      TELAPSE      189.62 TCPU      188.57
 TTTTTTTTTTTTTTTTTTTTTTTTTTTTTT MONMO3      TELAPSE      192.93 TCPU      191.87
 NUMERICALLY INTEGRATED DENSITY     14.3526744941     11.6473282711
 TTTTTTTTTTTTTTTTTTTTTTTTTTTTTT NUMDFT      TELAPSE      193.67 TCPU      192.61
 CYC  44 ETOT(AU) -1.263474997049E+03 DETOT -1.26E-07 tst  3.13E-15 PX  1.47E-09
 ANDERSON MIX: BETA=  -4.523148147769E-01
 TTTTTTTTTTTTTTTTTTTTTTTTTTTTTT FDIK        TELAPSE      193.67 TCPU      192.62
 POSSIBLY CONDUCTING STATE - EFERMI(AU) -1.3873519E-01 (RES. CHARGE  5.97E-08;IT.  0)
 TTTTTTTTTTTTTTTTTTTTTTTTTTTTTT PDIG        TELAPSE      193.69 TCPU      192.64
 CHARGE NORMALIZATION FACTOR   1.00000000
 TOTAL ATOMIC CHARGES:
  26.0000000
 SUMMED SPIN DENSITY           2.70534649
 TOTAL ATOMIC SPINS  :
   2.7053465
 TTTTTTTTTTTTTTTTTTTTTTTTTTTTTT MOQGAD      TELAPSE      193.70 TCPU      192.64
 TTTTTTTTTTTTTTTTTTTTTTTTTTTTTT SHELLX      TELAPSE      193.90 TCPU      192.85
 TTTTTTTTTTTTTTTTTTTTTTTTTTTTTT MONMO3      TELAPSE      197.20 TCPU      196.15
 NUMERICALLY INTEGRATED DENSITY     14.3526744966     11.6473282686
 TTTTTTTTTTTTTTTTTTTTTTTTTTTTTT NUMDFT      TELAPSE      197.95 TCPU      196.89
 CYC  45 ETOT(AU) -1.263474997097E+03 DETOT -4.74E-08 tst  3.13E-15 PX  7.78E-10
 ANDERSON MIX: BETA=  -8.488290283003E-01
 TTTTTTTTTTTTTTTTTTTTTTTTTTTTTT FDIK        TELAPSE      197.95 TCPU      196.90
 POSSIBLY CONDUCTING STATE - EFERMI(AU) -1.3873519E-01 (RES. CHARGE  5.86E-08;IT.  0)
 TTTTTTTTTTTTTTTTTTTTTTTTTTTTTT PDIG        TELAPSE      197.97 TCPU      196.92
 CHARGE NORMALIZATION FACTOR   1.00000000
 TOTAL ATOMIC CHARGES:
  26.0000000
 SUMMED SPIN DENSITY           2.70534649
 TOTAL ATOMIC SPINS  :
   2.7053465
 TTTTTTTTTTTTTTTTTTTTTTTTTTTTTT MOQGAD      TELAPSE      197.98 TCPU      196.92
 TTTTTTTTTTTTTTTTTTTTTTTTTTTTTT SHELLX      TELAPSE      198.18 TCPU      197.13
 TTTTTTTTTTTTTTTTTTTTTTTTTTTTTT MONMO3      TELAPSE      201.48 TCPU      200.43
 NUMERICALLY INTEGRATED DENSITY     14.3526744986     11.6473282667
 TTTTTTTTTTTTTTTTTTTTTTTTTTTTTT NUMDFT      TELAPSE      202.23 TCPU      201.17
 CYC  46 ETOT(AU) -1.263474997129E+03 DETOT -3.18E-08 tst  3.13E-15 PX  5.61E-10
 ANDERSON MIX: BETA=  -3.321928939025E-02
 TTTTTTTTTTTTTTTTTTTTTTTTTTTTTT FDIK        TELAPSE      202.23 TCPU      201.18
 POSSIBLY CONDUCTING STATE - EFERMI(AU) -1.3873519E-01 (RES. CHARGE  5.90E-08;IT.  0)
 TTTTTTTTTTTTTTTTTTTTTTTTTTTTTT PDIG        TELAPSE      202.26 TCPU      201.20
 CHARGE NORMALIZATION FACTOR   1.00000000
 TOTAL ATOMIC CHARGES:
  26.0000000
 SUMMED SPIN DENSITY           2.70534649
 TOTAL ATOMIC SPINS  :
   2.7053465
 TTTTTTTTTTTTTTTTTTTTTTTTTTTTTT MOQGAD      TELAPSE      202.26 TCPU      201.21
 TTTTTTTTTTTTTTTTTTTTTTTTTTTTTT SHELLX      TELAPSE      202.47 TCPU      201.41
 TTTTTTTTTTTTTTTTTTTTTTTTTTTTTT MONMO3      TELAPSE      205.77 TCPU      204.71
 NUMERICALLY INTEGRATED DENSITY     14.3526744984     11.6473282669
 TTTTTTTTTTTTTTTTTTTTTTTTTTTTTT NUMDFT      TELAPSE      206.51 TCPU      205.45
 CYC  47 ETOT(AU) -1.263474997116E+03 DETOT  1.23E-08 tst  3.13E-15 PX  7.75E-11
 ANDERSON MIX: BETA=   2.208592355034E+00
 TTTTTTTTTTTTTTTTTTTTTTTTTTTTTT FDIK        TELAPSE      206.51 TCPU      205.46
 POSSIBLY CONDUCTING STATE - EFERMI(AU) -1.3873519E-01 (RES. CHARGE  5.81E-08;IT.  0)
 TTTTTTTTTTTTTTTTTTTTTTTTTTTTTT PDIG        TELAPSE      206.54 TCPU      205.48
 CHARGE NORMALIZATION FACTOR   1.00000000
 TOTAL ATOMIC CHARGES:
  26.0000000
 SUMMED SPIN DENSITY           2.70534649
 TOTAL ATOMIC SPINS  :
   2.7053465
 TTTTTTTTTTTTTTTTTTTTTTTTTTTTTT MOQGAD      TELAPSE      206.54 TCPU      205.49
 TTTTTTTTTTTTTTTTTTTTTTTTTTTTTT SHELLX      TELAPSE      206.75 TCPU      205.69
 TTTTTTTTTTTTTTTTTTTTTTTTTTTTTT MONMO3      TELAPSE      210.05 TCPU      208.99
 NUMERICALLY INTEGRATED DENSITY     14.3526744987     11.6473282665
 TTTTTTTTTTTTTTTTTTTTTTTTTTTTTT NUMDFT      TELAPSE      210.79 TCPU      209.73
 CYC  48 ETOT(AU) -1.263474997142E+03 DETOT -2.61E-08 tst  3.13E-15 PX  1.09E-10
 ANDERSON MIX: BETA=  -8.015419476599E-03
 TTTTTTTTTTTTTTTTTTTTTTTTTTTTTT FDIK        TELAPSE      210.79 TCPU      209.74
 POSSIBLY CONDUCTING STATE - EFERMI(AU) -1.3873519E-01 (RES. CHARGE  5.81E-08;IT.  0)
 TTTTTTTTTTTTTTTTTTTTTTTTTTTTTT PDIG        TELAPSE      210.82 TCPU      209.76
 CHARGE NORMALIZATION FACTOR   1.00000000
 TOTAL ATOMIC CHARGES:
  26.0000000
 SUMMED SPIN DENSITY           2.70534649
 TOTAL ATOMIC SPINS  :
   2.7053465
 TTTTTTTTTTTTTTTTTTTTTTTTTTTTTT MOQGAD      TELAPSE      210.82 TCPU      209.77
 TTTTTTTTTTTTTTTTTTTTTTTTTTTTTT SHELLX      TELAPSE      211.03 TCPU      209.97
 TTTTTTTTTTTTTTTTTTTTTTTTTTTTTT MONMO3      TELAPSE      214.33 TCPU      213.27
 NUMERICALLY INTEGRATED DENSITY     14.3526744986     11.6473282666
 TTTTTTTTTTTTTTTTTTTTTTTTTTTTTT NUMDFT      TELAPSE      215.07 TCPU      214.01
 CYC  49 ETOT(AU) -1.263474997144E+03 DETOT -1.21E-09 tst  3.13E-15 PX  3.29E-11
 ANDERSON MIX: BETA=   5.252957198139E-01
 TTTTTTTTTTTTTTTTTTTTTTTTTTTTTT FDIK        TELAPSE      215.07 TCPU      214.02
 POSSIBLY CONDUCTING STATE - EFERMI(AU) -1.3873519E-01 (RES. CHARGE  5.80E-08;IT.  0)
 TTTTTTTTTTTTTTTTTTTTTTTTTTTTTT PDIG        TELAPSE      215.10 TCPU      214.04
 CHARGE NORMALIZATION FACTOR   1.00000000
 TOTAL ATOMIC CHARGES:
  26.0000000
 SUMMED SPIN DENSITY           2.70534649
 TOTAL ATOMIC SPINS  :
   2.7053465
 TTTTTTTTTTTTTTTTTTTTTTTTTTTTTT MOQGAD      TELAPSE      215.10 TCPU      214.05
 TTTTTTTTTTTTTTTTTTTTTTTTTTTTTT SHELLX      TELAPSE      215.30 TCPU      214.25
 TTTTTTTTTTTTTTTTTTTTTTTTTTTTTT MONMO3      TELAPSE      218.60 TCPU      217.55
 NUMERICALLY INTEGRATED DENSITY     14.3526744986     11.6473282666
 TTTTTTTTTTTTTTTTTTTTTTTTTTTTTT NUMDFT      TELAPSE      219.35 TCPU      218.29
 CYC  50 ETOT(AU) -1.263474997145E+03 DETOT -1.67E-09 tst  3.13E-15 PX  5.63E-12
 ANDERSON MIX: BETA=   1.946137250710E+00
 TTTTTTTTTTTTTTTTTTTTTTTTTTTTTT FDIK        TELAPSE      219.35 TCPU      218.30
 POSSIBLY CONDUCTING STATE - EFERMI(AU) -1.3873519E-01 (RES. CHARGE  5.80E-08;IT.  0)
 TTTTTTTTTTTTTTTTTTTTTTTTTTTTTT PDIG        TELAPSE      219.38 TCPU      218.32
 CHARGE NORMALIZATION FACTOR   1.00000000
 TOTAL ATOMIC CHARGES:
  26.0000000
 SUMMED SPIN DENSITY           2.70534649
 TOTAL ATOMIC SPINS  :
   2.7053465
 TTTTTTTTTTTTTTTTTTTTTTTTTTTTTT MOQGAD      TELAPSE      219.38 TCPU      218.33
 TTTTTTTTTTTTTTTTTTTTTTTTTTTTTT SHELLX      TELAPSE      219.58 TCPU      218.53
 TTTTTTTTTTTTTTTTTTTTTTTTTTTTTT MONMO3      TELAPSE      222.89 TCPU      221.83
 NUMERICALLY INTEGRATED DENSITY     14.3526744986     11.6473282666
 TTTTTTTTTTTTTTTTTTTTTTTTTTTTTT NUMDFT      TELAPSE      223.63 TCPU      222.58
 CYC  51 ETOT(AU) -1.263474997144E+03 DETOT  1.40E-09 tst  3.13E-15 PX  1.05E-11
 ANDERSON MIX: BETA=  -3.748110284401E+00
 TTTTTTTTTTTTTTTTTTTTTTTTTTTTTT FDIK        TELAPSE      223.64 TCPU      222.58
 POSSIBLY CONDUCTING STATE - EFERMI(AU) -1.3873519E-01 (RES. CHARGE  5.82E-08;IT.  0)
 TTTTTTTTTTTTTTTTTTTTTTTTTTTTTT PDIG        TELAPSE      223.66 TCPU      222.61
 CHARGE NORMALIZATION FACTOR   1.00000000
 TOTAL ATOMIC CHARGES:
  26.0000000
 SUMMED SPIN DENSITY           2.70534649
 TOTAL ATOMIC SPINS  :
   2.7053465
 TTTTTTTTTTTTTTTTTTTTTTTTTTTTTT MOQGAD      TELAPSE      223.67 TCPU      222.61
 TTTTTTTTTTTTTTTTTTTTTTTTTTTTTT SHELLX      TELAPSE      223.87 TCPU      222.81
 TTTTTTTTTTTTTTTTTTTTTTTTTTTTTT MONMO3      TELAPSE      227.17 TCPU      226.11
 NUMERICALLY INTEGRATED DENSITY     14.3526744985     11.6473282668
 TTTTTTTTTTTTTTTTTTTTTTTTTTTTTT NUMDFT      TELAPSE      227.91 TCPU      226.85
 CYC  52 ETOT(AU) -1.263474997140E+03 DETOT  4.42E-09 tst  3.13E-15 PX  4.70E-11
 ANDERSON MIX: BETA=  -6.579277757693E-01
 TTTTTTTTTTTTTTTTTTTTTTTTTTTTTT FDIK        TELAPSE      227.91 TCPU      226.86
 POSSIBLY CONDUCTING STATE - EFERMI(AU) -1.3873519E-01 (RES. CHARGE  5.83E-08;IT.  0)
 TTTTTTTTTTTTTTTTTTTTTTTTTTTTTT PDIG        TELAPSE      227.94 TCPU      226.89
 CHARGE NORMALIZATION FACTOR   1.00000000
 TOTAL ATOMIC CHARGES:
  26.0000000
 SUMMED SPIN DENSITY           2.70534649
 TOTAL ATOMIC SPINS  :
   2.7053465
 TTTTTTTTTTTTTTTTTTTTTTTTTTTTTT MOQGAD      TELAPSE      227.94 TCPU      226.89
 TTTTTTTTTTTTTTTTTTTTTTTTTTTTTT SHELLX      TELAPSE      228.15 TCPU      227.09
 TTTTTTTTTTTTTTTTTTTTTTTTTTTTTT MONMO3      TELAPSE      231.45 TCPU      230.39
 NUMERICALLY INTEGRATED DENSITY     14.3526744984     11.6473282668
 TTTTTTTTTTTTTTTTTTTTTTTTTTTTTT NUMDFT      TELAPSE      232.19 TCPU      231.14
 CYC  53 ETOT(AU) -1.263474997137E+03 DETOT  2.46E-09 tst  3.13E-15 PX  2.99E-11
 ANDERSON MIX: BETA=  -5.523594579216E-01
 TTTTTTTTTTTTTTTTTTTTTTTTTTTTTT FDIK        TELAPSE      232.20 TCPU      231.14
 POSSIBLY CONDUCTING STATE - EFERMI(AU) -1.3873519E-01 (RES. CHARGE  5.83E-08;IT.  0)
 TTTTTTTTTTTTTTTTTTTTTTTTTTTTTT PDIG        TELAPSE      232.22 TCPU      231.17
 CHARGE NORMALIZATION FACTOR   1.00000000
 TOTAL ATOMIC CHARGES:
  26.0000000
 SUMMED SPIN DENSITY           2.70534649
 TOTAL ATOMIC SPINS  :
   2.7053465
 TTTTTTTTTTTTTTTTTTTTTTTTTTTTTT MOQGAD      TELAPSE      232.22 TCPU      231.17
 TTTTTTTTTTTTTTTTTTTTTTTTTTTTTT SHELLX      TELAPSE      232.43 TCPU      231.37
 TTTTTTTTTTTTTTTTTTTTTTTTTTTTTT MONMO3      TELAPSE      235.73 TCPU      234.67
 NUMERICALLY INTEGRATED DENSITY     14.3526744983     11.6473282669
 TTTTTTTTTTTTTTTTTTTTTTTTTTTTTT NUMDFT      TELAPSE      236.47 TCPU      235.42
 CYC  54 ETOT(AU) -1.263474997136E+03 DETOT  1.01E-09 tst  3.13E-15 PX  1.22E-11
 ANDERSON MIX: BETA=  -2.512361731038E-01
 TTTTTTTTTTTTTTTTTTTTTTTTTTTTTT FDIK        TELAPSE      236.48 TCPU      235.43
 POSSIBLY CONDUCTING STATE - EFERMI(AU) -1.3873519E-01 (RES. CHARGE  5.83E-08;IT.  0)
 TTTTTTTTTTTTTTTTTTTTTTTTTTTTTT PDIG        TELAPSE      236.50 TCPU      235.45
 CHARGE NORMALIZATION FACTOR   1.00000000
 TOTAL ATOMIC CHARGES:
  26.0000000
 SUMMED SPIN DENSITY           2.70534649
 TOTAL ATOMIC SPINS  :
   2.7053465
 TTTTTTTTTTTTTTTTTTTTTTTTTTTTTT MOQGAD      TELAPSE      236.51 TCPU      235.45
 TTTTTTTTTTTTTTTTTTTTTTTTTTTTTT SHELLX      TELAPSE      236.71 TCPU      235.66
 TTTTTTTTTTTTTTTTTTTTTTTTTTTTTT MONMO3      TELAPSE      240.01 TCPU      238.96
 NUMERICALLY INTEGRATED DENSITY     14.3526744983     11.6473282669
 TTTTTTTTTTTTTTTTTTTTTTTTTTTTTT NUMDFT      TELAPSE      240.76 TCPU      239.70
 CYC  55 ETOT(AU) -1.263474997136E+03 DETOT -6.30E-11 tst  3.13E-15 PX  8.57E-13
 ANDERSON MIX: BETA=   4.056478074055E+00
 TTTTTTTTTTTTTTTTTTTTTTTTTTTTTT FDIK        TELAPSE      240.76 TCPU      239.71
 POSSIBLY CONDUCTING STATE - EFERMI(AU) -1.3873519E-01 (RES. CHARGE  5.83E-08;IT.  0)
 TTTTTTTTTTTTTTTTTTTTTTTTTTTTTT PDIG        TELAPSE      240.79 TCPU      239.73
 CHARGE NORMALIZATION FACTOR   1.00000000
 TOTAL ATOMIC CHARGES:
  26.0000000
 SUMMED SPIN DENSITY           2.70534649
 TOTAL ATOMIC SPINS  :
   2.7053465
 TTTTTTTTTTTTTTTTTTTTTTTTTTTTTT MOQGAD      TELAPSE      240.79 TCPU      239.73
 TTTTTTTTTTTTTTTTTTTTTTTTTTTTTT SHELLX      TELAPSE      240.99 TCPU      239.94
 +++ ENERGIES IN A.U. +++
 ::: EXT EL-POLE                                  -1.1227803494508E+03
 ::: EXT EL-SPHEROPOLE                             1.2038987076069E+01
 ::: BIELET ZONE E-E                               1.4215427555416E+03
 ::: TOTAL E-E                                     3.1080139316686E+02
 ::: TOTAL E-N + N-E                              -2.5563788647318E+03
 ::: TOTAL N-N                                    -2.3816691142289E+02
 ::: KINETIC ENERGY                                1.2622580648937E+03
 ::: PSEUDO TOTAL   ENERGY                        -1.2214863180941E+03
 ::: VIRIAL COEFFICIENT                            1.0164154359357E+00
 TTTTTTTTTTTTTTTTTTTTTTTTTTTTTT MONMO3      TELAPSE      244.29 TCPU      243.24
 NUMERICALLY INTEGRATED DENSITY     14.3526744983     11.6473282669
 TTTTTTTTTTTTTTTTTTTTTTTTTTTTTT NUMDFT      TELAPSE      245.03 TCPU      243.98
 CYC  56 ETOT(AU) -1.263474997137E+03 DETOT -4.84E-10 tst  3.13E-15 PX  8.57E-13

 == SCF ENDED - CONVERGENCE ON ENERGY      E(AU) -1.2634749971366E+03 CYCLES  56


 ENERGY EXPRESSION=HARTREE+FOCK EXCH*0.25000+(PBE    EXCH)*0.75000+PBE    CORR

 FINITE TEMPERATURE DFT CALCULATION 
 TEMPERATURE      (T)    2.500000000000E-02 HARTREE 
 ENERGY           (E)   -1.263474997137E+03
 FREE ENERGY      (F)   -1.263501900393E+03
 ELECTRON ENTROPY (S)    1.076130247121E+00
 (E(T)+F(T))/2    (E0)  -1.263488448765E+03


 TOTAL ENERGY(DFT)(AU)( 56) -1.2634884487647E+03 DE-4.8E-10 tester 3.1E-15
 TTTTTTTTTTTTTTTTTTTTTTTTTTTTTT EDFT        TELAPSE      245.03 TCPU      243.98
 INFORMATION **** optc001 **** GEOMETRY OUTPUT FILE
 CLASSICAL MODEL (SCHLEGEL) USED AS INITIAL HESSIAN MATRIX
 REFERENCE GEOMETRY DEFINED

 MAX GRADIENT      0.151130  THRESHOLD              0.000450 CONVERGED NO
 RMS GRADIENT      0.151130  THRESHOLD              0.000300 CONVERGED NO

 GRADIENT NORM     0.151130  GRADIENT THRESHOLD     0.500000

 EIGENVALUES OF THE ESTIMATED HESSIAN
   9.247    

 INITIAL TRUST RADIUS    0.5000000000E+00

 PREDICTED ENERGY CHANGE    -0.124E-02

 INITIAL DISPLACEMENTS
  0.016344
 TTTTTTTTTTTTTTTTTTTTTTTTTTTTTT OPTI        TELAPSE      775.32 TCPU      774.16

 OPTOPTOPTOPTOPTOPTOPTOPTOPTOPTOPTOPTOPTOPTOPTOPTOPTOPTOPTOPTOPTOPTOPTOPTOPTOPT

 STARTING GEOMETRY OPTIMIZATION - INFORMATION ON SCF MOVED TO SCFOUT.LOG
 GEOMETRY OPTIMIZATION INFORMATION STORED IN OPTINFO.DAT

 OPTOPTOPTOPTOPTOPTOPTOPTOPTOPTOPTOPTOPTOPTOPTOPTOPTOPTOPTOPTOPTOPTOPTOPTOPTOPT
 *******************************************************************************
 CELL OPTIMIZATION - POINT    2
 *******************************************************************************
 LATTICE PARAMETERS (ANGSTROMS AND DEGREES) - BOHR = 0.5291772083 ANGSTROM
 PRIMITIVE CELL - CENTRING CODE 6/0 VOLUME=    10.498944 - DENSITY  8.847 g/cm^3
         A              B              C           ALPHA      BETA       GAMMA 
     2.38921829     2.38921829     2.38921829   109.471221 109.471221 109.471221
 *******************************************************************************
 ATOMS IN THE ASYMMETRIC UNIT    1 - ATOMS IN THE UNIT CELL:    1
     ATOM              X/A                 Y/B                 Z/C    
 *******************************************************************************
   1 T  26 FE    0.000000000000E+00  0.000000000000E+00  0.000000000000E+00

 TRANSFORMATION MATRIX PRIMITIVE-CRYSTALLOGRAPHIC CELL
  0.0000  1.0000  1.0000  1.0000  0.0000  1.0000  1.0000  1.0000  0.0000

 *******************************************************************************
 CRYSTALLOGRAPHIC CELL (VOLUME=         20.99788716)
         A              B              C           ALPHA      BETA       GAMMA 
     2.75883165     2.75883165     2.75883165    90.000000  90.000000  90.000000

 COORDINATES IN THE CRYSTALLOGRAPHIC CELL
     ATOM              X/A                 Y/B                 Z/C    
 *******************************************************************************
   1 T  26 FE    0.000000000000E+00  0.000000000000E+00  0.000000000000E+00

[...]

   1 FE  26  2.853  0.000  0.002 -0.001 -0.001 -0.001  0.001  0.004  0.004
                    0.004  0.000 -0.001 -0.001 -0.001 -0.025 -0.078 -0.078
                   -0.078  0.626  0.487  0.487  0.626  0.487  0.098  0.064
                    0.064  0.098  0.064

  ATOM    Z CHARGE  SHELL POPULATION

   1 FE  26  2.853  0.000  0.000  0.013 -0.002 -0.258  2.713  0.389

 OVERLAP POPULATION CONDENSED TO ATOMS FOR FIRST   6 NEIGHBORS

 ATOM A   1 FE   ATOM B     CELL      R(AB)/AU R(AB)/ANG    OVPOP(AB)
                  1 FE   ( -1 -1 -1)     4.649     2.460    -0.032
                  1 FE   ( -1 -1  0)     5.369     2.841    -0.013
                  1 FE   ( -2 -1 -1)     7.592     4.018     0.001
                  1 FE   ( -2 -2 -1)     8.903     4.711     0.000
                  1 FE   ( -2 -2 -2)     9.299     4.921     0.000
                  1 FE   ( -2 -2  0)    10.737     5.682     0.000
 WARNING **** iordo **** not allocated - eigenvalues printing removed
 WARNING **** iordo **** not allocated - eigenvector printing removed
 EIGENVECTORS IN FORTRAN UNIT  8

 FINAL OPTIMIZED GEOMETRY - DIMENSIONALITY OF THE SYSTEM      3
 (NON PERIODIC DIRECTION: LATTICE PARAMETER FORMALLY SET TO 500)
 *******************************************************************************
 LATTICE PARAMETERS (ANGSTROMS AND DEGREES) - BOHR = 0.5291772083 ANGSTROM
 PRIMITIVE CELL - CENTRING CODE 6/0 VOLUME=    11.464064 - DENSITY  8.102 g/cm^3
         A              B              C           ALPHA      BETA       GAMMA 
     2.46029303     2.46029303     2.46029303   109.471221 109.471221 109.471221
 *******************************************************************************
 ATOMS IN THE ASYMMETRIC UNIT    1 - ATOMS IN THE UNIT CELL:    1
     ATOM              X/A                 Y/B                 Z/C    
 *******************************************************************************
   1 T  26 FE    0.000000000000E+00  0.000000000000E+00  0.000000000000E+00

 TRANSFORMATION MATRIX PRIMITIVE-CRYSTALLOGRAPHIC CELL
  0.0000  1.0000  1.0000  1.0000  0.0000  1.0000  1.0000  1.0000  0.0000

 *******************************************************************************
 CRYSTALLOGRAPHIC CELL (VOLUME=         22.92812891)
         A              B              C           ALPHA      BETA       GAMMA 
     2.84090169     2.84090169     2.84090169    90.000000  90.000000  90.000000

 COORDINATES IN THE CRYSTALLOGRAPHIC CELL
     ATOM              X/A                 Y/B                 Z/C    
 *******************************************************************************
   1 T  26 FE    0.000000000000E+00  0.000000000000E+00  0.000000000000E+00

 T = ATOM BELONGING TO THE ASYMMETRIC UNIT
 INFORMATION **** fort.34 **** GEOMETRY OUTPUT FILE

 DIRECT LATTICE VECTORS CARTESIAN COMPONENTS (ANGSTROM)
          X                    Y                    Z
  -0.142045084432E+01   0.142045084432E+01   0.142045084432E+01
   0.142045084432E+01  -0.142045084432E+01   0.142045084432E+01
   0.142045084432E+01   0.142045084432E+01  -0.142045084432E+01


 CARTESIAN COORDINATES - PRIMITIVE CELL
 *******************************************************************************
 *      ATOM          X(ANGSTROM)         Y(ANGSTROM)         Z(ANGSTROM)
 *******************************************************************************
   1    26 FE    0.000000000000E+00  0.000000000000E+00  0.000000000000E+00

 ****  48 SYMMOPS - TRANSLATORS IN FRACTIONAL UNITS
  V INV                   ROTATION MATRICES                       TRANSLATOR
  1  1  1.00  0.00  0.00  0.00  1.00  0.00  0.00  0.00  1.00    0.00  0.00  0.00
  2  2  0.00  1.00 -1.00  1.00  0.00 -1.00  0.00  0.00 -1.00    0.00  0.00  0.00
  3  3 -1.00  0.00  0.00 -1.00  0.00  1.00 -1.00  1.00  0.00    0.00  0.00  0.00
  4  4  0.00 -1.00  1.00  0.00 -1.00  0.00  1.00 -1.00  0.00    0.00  0.00  0.00
  5  6  0.00  0.00  1.00  1.00  0.00  0.00  0.00  1.00  0.00    0.00  0.00  0.00
  6  5  0.00  1.00  0.00  0.00  0.00  1.00  1.00  0.00  0.00    0.00  0.00  0.00
  7  8  1.00 -1.00  0.00  0.00 -1.00  1.00  0.00 -1.00  0.00    0.00  0.00  0.00
  8  7  1.00  0.00 -1.00  0.00  0.00 -1.00  0.00  1.00 -1.00    0.00  0.00  0.00
  9 10  0.00  0.00 -1.00  0.00  1.00 -1.00  1.00  0.00 -1.00    0.00  0.00  0.00
 10  9 -1.00  0.00  1.00 -1.00  1.00  0.00 -1.00  0.00  0.00    0.00  0.00  0.00
 11 12 -1.00  1.00  0.00 -1.00  0.00  0.00 -1.00  0.00  1.00    0.00  0.00  0.00
 12 11  0.00 -1.00  0.00  1.00 -1.00  0.00  0.00 -1.00  1.00    0.00  0.00  0.00
 13 13  0.00 -1.00  0.00 -1.00  0.00  0.00  0.00  0.00 -1.00    0.00  0.00  0.00
 14 14 -1.00  0.00  1.00  0.00 -1.00  1.00  0.00  0.00  1.00    0.00  0.00  0.00
 15 16  1.00  0.00 -1.00  1.00  0.00  0.00  1.00 -1.00  0.00    0.00  0.00  0.00
 16 15  0.00  1.00  0.00  0.00  1.00 -1.00 -1.00  1.00  0.00    0.00  0.00  0.00
 17 17 -1.00  0.00  0.00  0.00  0.00 -1.00  0.00 -1.00  0.00    0.00  0.00  0.00
 18 18  0.00  0.00 -1.00  0.00 -1.00  0.00 -1.00  0.00  0.00    0.00  0.00  0.00
 19 21  0.00  1.00 -1.00 -1.00  1.00  0.00  0.00  1.00  0.00    0.00  0.00  0.00
 20 22  0.00  0.00  1.00 -1.00  0.00  1.00  0.00 -1.00  1.00    0.00  0.00  0.00
 21 19  0.00 -1.00  1.00  0.00  0.00  1.00 -1.00  0.00  1.00    0.00  0.00  0.00
 22 20  1.00 -1.00  0.00  1.00  0.00 -1.00  1.00  0.00  0.00    0.00  0.00  0.00
 23 23  1.00  0.00  0.00  1.00 -1.00  0.00  1.00  0.00 -1.00    0.00  0.00  0.00
 24 24 -1.00  1.00  0.00  0.00  1.00  0.00  0.00  1.00 -1.00    0.00  0.00  0.00
 25 25 -1.00  0.00  0.00  0.00 -1.00  0.00  0.00  0.00 -1.00    0.00  0.00  0.00
 26 26  0.00 -1.00  1.00 -1.00  0.00  1.00  0.00  0.00  1.00    0.00  0.00  0.00
 27 27  1.00  0.00  0.00  1.00  0.00 -1.00  1.00 -1.00  0.00    0.00  0.00  0.00
 28 28  0.00  1.00 -1.00  0.00  1.00  0.00 -1.00  1.00  0.00    0.00  0.00  0.00
 29 30  0.00  0.00 -1.00 -1.00  0.00  0.00  0.00 -1.00  0.00    0.00  0.00  0.00
 30 29  0.00 -1.00  0.00  0.00  0.00 -1.00 -1.00  0.00  0.00    0.00  0.00  0.00
 31 32 -1.00  1.00  0.00  0.00  1.00 -1.00  0.00  1.00  0.00    0.00  0.00  0.00
 32 31 -1.00  0.00  1.00  0.00  0.00  1.00  0.00 -1.00  1.00    0.00  0.00  0.00
 33 34  0.00  0.00  1.00  0.00 -1.00  1.00 -1.00  0.00  1.00    0.00  0.00  0.00
 34 33  1.00  0.00 -1.00  1.00 -1.00  0.00  1.00  0.00  0.00    0.00  0.00  0.00
 35 36  1.00 -1.00  0.00  1.00  0.00  0.00  1.00  0.00 -1.00    0.00  0.00  0.00
 36 35  0.00  1.00  0.00 -1.00  1.00  0.00  0.00  1.00 -1.00    0.00  0.00  0.00
 37 37  0.00  1.00  0.00  1.00  0.00  0.00  0.00  0.00  1.00    0.00  0.00  0.00
 38 38  1.00  0.00 -1.00  0.00  1.00 -1.00  0.00  0.00 -1.00    0.00  0.00  0.00
 39 40 -1.00  0.00  1.00 -1.00  0.00  0.00 -1.00  1.00  0.00    0.00  0.00  0.00
 40 39  0.00 -1.00  0.00  0.00 -1.00  1.00  1.00 -1.00  0.00    0.00  0.00  0.00
 41 41  1.00  0.00  0.00  0.00  0.00  1.00  0.00  1.00  0.00    0.00  0.00  0.00
 42 42  0.00  0.00  1.00  0.00  1.00  0.00  1.00  0.00  0.00    0.00  0.00  0.00
 43 45  0.00 -1.00  1.00  1.00 -1.00  0.00  0.00 -1.00  0.00    0.00  0.00  0.00
 44 46  0.00  0.00 -1.00  1.00  0.00 -1.00  0.00  1.00 -1.00    0.00  0.00  0.00
 45 43  0.00  1.00 -1.00  0.00  0.00 -1.00  1.00  0.00 -1.00    0.00  0.00  0.00
 46 44 -1.00  1.00  0.00 -1.00  0.00  1.00 -1.00  0.00  0.00    0.00  0.00  0.00
 47 47 -1.00  0.00  0.00 -1.00  1.00  0.00 -1.00  0.00  1.00    0.00  0.00  0.00
 48 48  1.00 -1.00  0.00  0.00 -1.00  0.00  0.00 -1.00  1.00    0.00  0.00  0.00
 TTTTTTTTTTTTTTTTTTTTTTTTTTTTTT END         TELAPSE    17980.04 TCPU    17971.80
 EEEEEEEEEE TERMINATION  DATE 23 06 2011 TIME 22:17:10.9
NODE    0 CPU TIME =     17971.803
NODE    1 CPU TIME =     17972.139
NODE    2 CPU TIME =     17972.203
NODE    3 CPU TIME =     17972.727
NODE    4 CPU TIME =     17971.691
NODE    5 CPU TIME =     17971.951
NODE    6 CPU TIME =     17971.675
NODE    7 CPU TIME =     17972.671
NODE    8 CPU TIME =     17973.815
NODE    9 CPU TIME =     17973.747
NODE   10 CPU TIME =     17972.955
NODE   11 CPU TIME =     17973.495
NODE   12 CPU TIME =     17973.579
NODE   13 CPU TIME =     17973.451
NODE   14 CPU TIME =     17973.407
NODE   15 CPU TIME =     17973.643
    TOTAL CPU TIME =    287564.956


PROPERTIES module input and output:

COORPRT
EXTPRT
PPAN
END

         
 *******************************************************************************
 *                                                                             *
 *                                CRYSTAL09                                    *
 *                              public : 1.0                                   *
 *                      March 5th, 2010 - sequential executable                *
 *                                                                             *
 *                                                                             *
 *                                                                             *
 *                              MAIN AUTHORS                                   *
 *                                                                             *
 *    R. DOVESI(1,10), V.R. SAUNDERS(2), C. ROETTI(1,10), R. ORLANDO (1,3),    *
 *  C.M. ZICOVICH-WILSON(1,4), F. PASCALE(5), B. CIVALLERI(1,10), K. DOLL(6),  *
 *       N.M. HARRISON(2,7), I. J. BUSH(2), Ph. D'ARCO(8), M. LLUNELL(9)       *
 *                                                                             *
 * (1) THEORETICAL CHEMISTRY GROUP - UNIVERSITA' DI TORINO - TORINO (ITALY)    *
 *      http://www.crystal.unito.it                                            *
 * (2) COMPUTATIONAL SCIENCE & ENGINEERING DEPARTMENT - CCLRC DARESBURY (UK)   *
 *     http://www.cse.clrc.ac.uk/cmg/CRYSTAL/                                  *
 * (3) UNIVERSITA' DEL PIEMONTE ORIENTALE - ALESSANDRIA (ITALY)                *
 * (4) UNIVERSIDAD AUTONOMA DEL ESTADO DE MORELOS - CUERNAVACA (MEXICO)        *
 * (5) UNIVERSITE' HENRI POINCARE' - NANCY (FRANCE)                            *
 * (6) MPI FUER FESTKOERPERFORSCHUNG - STUTTGART (GERMANY)                     *
 * (7) IMPERIAL COLLEGE - LONDON (UK)                                          *
 * (8) UNIVERSITE' PIERRE ET MARIE CURIE - PARIS (FRANCE)                      *
 * (9) UNIVERSIDAD DE BARCELONA - BARCELONA (SPAIN)                            *
 *(10) NIS - NANOSTRUCTURED INTERFACES AND SURFACES - TORINO (ITALY)           *
 *     http://www.crystal.unito.it                                             *
 *******************************************************************************
 EEEEEEEEEE STARTING  DATE 23 06 2011 TIME 22:17:11.8

 *******************************************************************************
 core exponents                                                                  
 CRYSTAL - PROPERTIES - TYPE OF CALCULATION :  UNRESTRICTED OPEN SHELL
 *******************************************************************************
 SPIN POLARIZED SYSTEM: SUMMED SPIN DENSITY    2.85349352

 KOHN-SHAM HAMILTONIAN

 (EXCHANGE)[CORRELATION] FUNCTIONAL:(PERDEW-BURKE-ERNZERHOF)[PERDEW-BURKE-ERNZERHOF]


 HYBRID EXCHANGE - PERCENTAGE OF FOCK EXCHANGE    25.0000

 SPIN POLARIZED DFT SELECTED

 DIRECT LATTICE VECTOR COMPONENTS (BOHR)
        -2.68426    2.68426    2.68426
         2.68426   -2.68426    2.68426
         2.68426    2.68426   -2.68426

 LATTICE PARAMETERS  (BOHR AND DEGREES) - PRIMITIVE CELL
       A          B          C         ALPHA      BETA     GAMMA        VOLUME
    4.64928    4.64928    4.64928    109.4712  109.4712  109.4712      77.36334
 *******************************************************************************
 N. OF ATOMS PER CELL        1  COULOMB OVERLAP TOL         (T1) 10** -8
 NUMBER OF SHELLS            7  COULOMB PENETRATION TOL     (T2) 10** -8
 NUMBER OF AO               27  EXCHANGE OVERLAP TOL        (T3) 10** -8
 N. OF ELECTRONS PER CELL   26  EXCHANGE PSEUDO OVP (F(G))  (T4) 10** -8
 CORE ELECTRONS PER CELL    18  EXCHANGE PSEUDO OVP (P(G))  (T5) 10**-16
 N. OF SYMMETRY OPERATORS   48  POLE ORDER IN MONO ZONE                4
 *******************************************************************************
   ATOM N.AT.  SHELL    X(A)      Y(A)      Z(A)      EXAD       N.ELECT.
 *******************************************************************************
    1   26 FE    7     0.000     0.000     0.000   3.608E-01      26.000
 *******************************************************************************
 DE(K)                   0.000E+00  ENERGY LEVEL SHIFTING        0.00000
 TOTAL ENERGY -1.2634931409087E+03  CONVERGENCE ON ENER       -1.242E-09
 KIN. ENERGY   1.2620912705886E+03  VIR. COEFF.           1.01633461E+00
 N. OF SCF CYCLES               42  FERMI ENERGY              -0.158E+00
 WEIGHT OF F(I) IN F(I+1)      40
 SHRINK. FACT.(MONKH.)     8  8  8  SHRINKING FACTOR(GILAT NET)       16
 NUMBER OF K POINTS IN THE IBZ  29  CELL VOLUME (A.U.)          68.88197
 *******************************************************************************

 GCALCO - MAX INDICES DIRECT LATTICE VECTOR    14    14    14
 NO.OF VECTORS CREATED 6999 STARS  122 RMAX    50.64657 BOHR

 DIMENSIONS  P(G)=   65035 F(G)=   12278 P(G),F(G) (IRR)    3097
 MAX G-VECTOR INDEX FOR 1- AND 2-ELECTRON INTEGRALS 459


 CAPPA:IS1  8;IS2  8;IS3  8; K PTS MONK NET   29; SYMMOPS: K SPACE 48;G SPACE 48

 *******************************************************************************
 LATTICE PARAMETERS (ANGSTROMS AND DEGREES) - BOHR = 0.5291772083 ANGSTROM
 PRIMITIVE CELL - CENTRING CODE 6/0 VOLUME=    11.464064 - DENSITY  8.102 g/cm^3
         A              B              C           ALPHA      BETA       GAMMA 
     2.46029303     2.46029303     2.46029303   109.471221 109.471221 109.471221
 *******************************************************************************
 ATOMS IN THE ASYMMETRIC UNIT    1 - ATOMS IN THE UNIT CELL:    1
     ATOM              X/A                 Y/B                 Z/C    
 *******************************************************************************
   1 T  26 FE    0.000000000000E+00  0.000000000000E+00  0.000000000000E+00

 TRANSFORMATION MATRIX PRIMITIVE-CRYSTALLOGRAPHIC CELL
  0.0000  1.0000  1.0000  1.0000  0.0000  1.0000  1.0000  1.0000  0.0000

 *******************************************************************************
 CRYSTALLOGRAPHIC CELL (VOLUME=         22.92812891)
         A              B              C           ALPHA      BETA       GAMMA 
     2.84090169     2.84090169     2.84090169    90.000000  90.000000  90.000000

 COORDINATES IN THE CRYSTALLOGRAPHIC CELL
     ATOM              X/A                 Y/B                 Z/C    
 *******************************************************************************
   1 T  26 FE    0.000000000000E+00  0.000000000000E+00  0.000000000000E+00

 T = ATOM BELONGING TO THE ASYMMETRIC UNIT
 TTTTTTTTTTTTTTTTTTTTTTTTTTTTTT COORPRT     TELAPSE        0.01 TCPU        0.01
 TTTTTTTTTTTTTTTTTTTTTTTTTTTTTT EXTPRT      TELAPSE        0.01 TCPU        0.01

 NEIGHBORS OF THE NON-EQUIVALENT ATOMS

 N = NUMBER OF NEIGHBORS AT DISTANCE R
    ATOM  N     R/ANG      R/AU   NEIGHBORS (ATOM LABELS AND CELL INDICES)
   1 FE   8     2.4603     4.6493   1 FE  -1-1-1   1 FE   1 1 1   1 FE  -1 0 0
                                    1 FE   1 0 0   1 FE   0-1 0   1 FE   0 1 0
                                    1 FE   0 0-1   1 FE   0 0 1
   1 FE   6     2.8409     5.3685   1 FE  -1-1 0   1 FE   1 1 0   1 FE  -1 0-1
                                    1 FE   1 0 1   1 FE   0-1-1   1 FE   0 1 1
   1 FE  12     4.0176     7.5922   1 FE  -2-1-1   1 FE   2 1 1   1 FE  -1-2-1
                                    1 FE   1 2 1   1 FE  -1-1-2   1 FE   1 1 2
                                    1 FE  -1 0 1   1 FE   1 0-1   1 FE  -1 1 0
                                    1 FE   1-1 0   1 FE   0-1 1   1 FE   0 1-1
   1 FE  24     4.7111     8.9027   1 FE  -2-2-1   1 FE   2 2 1   1 FE  -2-1-2
                                    1 FE   2 1 2   1 FE  -2-1 0   1 FE   2 1 0
                                    1 FE  -2 0-1   1 FE   2 0 1   1 FE  -1-2-2
                                    1 FE   1 2 2   1 FE  -1-2 0   1 FE   1 2 0
                                    1 FE  -1-1 1   1 FE   1 1-1   1 FE  -1 0-2
                                    1 FE   1 0 2   1 FE  -1 1-1   1 FE   1-1 1
                                    1 FE  -1 1 1   1 FE   1-1-1   1 FE   0-2-1
                                    1 FE   0 2 1   1 FE   0-1-2   1 FE   0 1 2
   1 FE   8     4.9206     9.2986   1 FE  -2-2-2   1 FE   2 2 2   1 FE  -2 0 0
                                    1 FE   2 0 0   1 FE   0-2 0   1 FE   0 2 0
                                    1 FE   0 0-2   1 FE   0 0 2
   1 FE   6     5.6818    10.7371   1 FE  -2-2 0   1 FE   2 2 0   1 FE  -2 0-2
                                    1 FE   2 0 2   1 FE   0-2-2   1 FE   0 2 2

 MMMMMMMMMMMMMMMMMMMMMMMMMMMMMMMMMMMMMMMMMMMMMMMMMMMMMMMMMMMMMMMMMMMMMMMMMMMMMMM
     ALPHA+BETA ELECTRONS
 MULLIKEN POPULATION ANALYSIS - NO. OF ELECTRONS   25.998621

  ATOM    Z CHARGE  A.O. POPULATION

   1 FE  26 25.999  2.000  1.922  2.057  2.057  2.057  0.416  0.703  0.703
                    0.703  1.569  1.160  1.160  1.160  0.616  0.414  0.414
                    0.414  0.860  0.960  0.960  0.860  0.960  0.358  0.386
                    0.386  0.358  0.386

  ATOM    Z CHARGE  SHELL POPULATION

   1 FE  26 25.999  2.000  8.095  2.524  5.050  1.858  4.600  1.873

 OVERLAP POPULATION CONDENSED TO ATOMS FOR FIRST   6 NEIGHBORS

 ATOM A   1 FE   ATOM B     CELL      R(AB)/AU R(AB)/ANG    OVPOP(AB)
                  1 FE   ( -1 -1 -1)     4.649     2.460     0.094
                  1 FE   ( -1 -1  0)     5.369     2.841     0.051
                  1 FE   ( -2 -1 -1)     7.592     4.018     0.000
                  1 FE   ( -2 -2 -1)     8.903     4.711     0.000
                  1 FE   ( -2 -2 -2)     9.299     4.921     0.000
                  1 FE   ( -2 -2  0)    10.737     5.682     0.000
 MMMMMMMMMMMMMMMMMMMMMMMMMMMMMMMMMMMMMMMMMMMMMMMMMMMMMMMMMMMMMMMMMMMMMMMMMMMMMMM
     ALPHA-BETA ELECTRONS
 MULLIKEN POPULATION ANALYSIS - NO. OF ELECTRONS    2.854128

  ATOM    Z CHARGE  A.O. POPULATION

   1 FE  26  2.854  0.000  0.002 -0.001 -0.001 -0.001  0.001  0.004  0.004
                    0.004  0.000 -0.001 -0.001 -0.001 -0.025 -0.078 -0.078
                   -0.078  0.626  0.487  0.487  0.626  0.487  0.098  0.064
                    0.064  0.098  0.064

  ATOM    Z CHARGE  SHELL POPULATION

   1 FE  26  2.854  0.000  0.000  0.013 -0.002 -0.258  2.713  0.389

 OVERLAP POPULATION CONDENSED TO ATOMS FOR FIRST   6 NEIGHBORS

 ATOM A   1 FE   ATOM B     CELL      R(AB)/AU R(AB)/ANG    OVPOP(AB)
                  1 FE   ( -1 -1 -1)     4.649     2.460    -0.032
                  1 FE   ( -1 -1  0)     5.369     2.841    -0.013
                  1 FE   ( -2 -1 -1)     7.592     4.018     0.001
                  1 FE   ( -2 -2 -1)     8.903     4.711     0.000
                  1 FE   ( -2 -2 -2)     9.299     4.921     0.000
                  1 FE   ( -2 -2  0)    10.737     5.682     0.000
 TTTTTTTTTTTTTTTTTTTTTTTTTTTTTT PPAN        TELAPSE        0.01 TCPU        0.01
 ENDPROP   
 TTTTTTTTTTTTTTTTTTTTTTTTTTTTTT END         TELAPSE        0.01 TCPU        0.01
 EEEEEEEEEE TERMINATION  DATE 23 06 2011 TIME 22:17:11.8

File SCFOUT.LOG saved as /home/blokhin/sto_fe/fe/bsopt/coreopt/fe_core_numopt.scfoutlog
File fort.9 saved as /home/blokhin/sto_fe/fe/bsopt/coreopt/fe_core_numopt.f9
File fort.20 saved as /home/blokhin/sto_fe/fe/bsopt/coreopt/fe_core_numopt.f9_
File fort.34 saved as /home/blokhin/sto_fe/fe/bsopt/coreopt/fe_core_numopt.gui
File OPTINFO.DAT saved as /home/blokhin/sto_fe/fe/bsopt/coreopt/fe_core_numopt.optinfodat

WARNING **** iordo **** not allocated - eigenvalues printing removed
 WARNING **** iordo **** not allocated - eigenvector printing removed

22:17 23/06/2011
Job duration was: 5 hour(s)
Tmpdir is: /scratch/blokhin/fe_core_numopt_36079 (chemix50)
