 Entering Gaussian System, Link 0=g03
 Input=sif4dp_opt.com
 Output=sif4dp_opt.log
 Initial command:
 /home/gaussian/g03/l1.exe /home1/scr/jam31/Gau-21592.inp -scrdir=/home1/scr/jam31/
 Entering Link 1 = /home/gaussian/g03/l1.exe PID=     21593.
  
 Copyright (c) 1988,1990,1992,1993,1995,1998,2003, Gaussian, Inc.
                  All Rights Reserved.
  
 This is the Gaussian(R) 03 program.  It is based on the
 the Gaussian(R) 98 system (copyright 1998, Gaussian, Inc.),
 the Gaussian(R) 94 system (copyright 1995, Gaussian, Inc.),
 the Gaussian 92(TM) system (copyright 1992, Gaussian, Inc.),
 the Gaussian 90(TM) system (copyright 1990, Gaussian, Inc.),
 the Gaussian 88(TM) system (copyright 1988, Gaussian, Inc.),
 the Gaussian 86(TM) system (copyright 1986, Carnegie Mellon
 University), and the Gaussian 82(TM) system (copyright 1983,
 Carnegie Mellon University). Gaussian is a federally registered
 trademark of Gaussian, Inc.
  
 This software contains proprietary and confidential information,
 including trade secrets, belonging to Gaussian, Inc.
  
 This software is provided under written license and may be
 used, copied, transmitted, or stored only in accord with that
 written license.
  
 The following legend is applicable only to US Government
 contracts under DFARS:
  
                    RESTRICTED RIGHTS LEGEND
  
 Use, duplication or disclosure by the US Government is subject
 to restrictions as set forth in subparagraph (c)(1)(ii) of the
 Rights in Technical Data and Computer Software clause at DFARS
 252.227-7013.
  
 Gaussian, Inc.
 Carnegie Office Park, Building 6, Pittsburgh, PA 15106 USA
  
 The following legend is applicable only to US Government
 contracts under FAR:
  
                    RESTRICTED RIGHTS LEGEND
  
 Use, reproduction and disclosure by the US Government is subject
 to restrictions as set forth in subparagraph (c) of the
 Commercial Computer Software - Restricted Rights clause at FAR
 52.227-19.
  
 Gaussian, Inc.
 Carnegie Office Park, Building 6, Pittsburgh, PA 15106 USA
  
  
 ---------------------------------------------------------------
 Warning -- This program may not be used in any manner that
 competes with the business of Gaussian, Inc. or will provide
 assistance to any competitor of Gaussian, Inc.  The licensee
 of this program is prohibited from giving any competitor of
 Gaussian, Inc. access to this program.  By using this program,
 the user acknowledges that Gaussian, Inc. is engaged in the
 business of creating and licensing software in the field of
 computational chemistry and represents and warrants to the
 licensee that it is not a competitor of Gaussian, Inc. and that
 it will not use this program in any manner prohibited above.
 ---------------------------------------------------------------
  

 Cite this work as:
 Gaussian 03, Revision B.05,
 M. J. Frisch, G. W. Trucks, H. B. Schlegel, G. E. Scuseria, 
 M. A. Robb, J. R. Cheeseman, J. A. Montgomery, Jr., T. Vreven, 
 K. N. Kudin, J. C. Burant, J. M. Millam, S. S. Iyengar, J. Tomasi, 
 V. Barone, B. Mennucci, M. Cossi, G. Scalmani, N. Rega, 
 G. A. Petersson, H. Nakatsuji, M. Hada, M. Ehara, K. Toyota, 
 R. Fukuda, J. Hasegawa, M. Ishida, T. Nakajima, Y. Honda, O. Kitao, 
 H. Nakai, M. Klene, X. Li, J. E. Knox, H. P. Hratchian, J. B. Cross, 
 C. Adamo, J. Jaramillo, R. Gomperts, R. E. Stratmann, O. Yazyev, 
 A. J. Austin, R. Cammi, C. Pomelli, J. W. Ochterski, P. Y. Ayala, 
 K. Morokuma, G. A. Voth, P. Salvador, J. J. Dannenberg, 
 V. G. Zakrzewski, S. Dapprich, A. D. Daniels, M. C. Strain, 
 O. Farkas, D. K. Malick, A. D. Rabuck, K. Raghavachari, 
 J. B. Foresman, J. V. Ortiz, Q. Cui, A. G. Baboul, S. Clifford, 
 J. Cioslowski, B. B. Stefanov, G. Liu, A. Liashenko, P. Piskorz, 
 I. Komaromi, R. L. Martin, D. J. Fox, T. Keith, M. A. Al-Laham, 
 C. Y. Peng, A. Nanayakkara, M. Challacombe, P. M. W. Gill, 
 B. Johnson, W. Chen, M. W. Wong, C. Gonzalez, and J. A. Pople, 
 Gaussian, Inc., Pittsburgh PA, 2003.
 
 **********************************************
 Gaussian 03:  x86-Linux-G03RevB.05 24-Oct-2003
                  30-Apr-2004 
 **********************************************
 %Mem=40MW
 %Chk=sif4_gas
 ----------------------------------------------------------------------
 #T PBEPBE/LanL2DZ PSEUDO=LANL2 extrabasis pop=ChelpG GFInput SCF=Tight
  Opt=(Z-matrix)
 ----------------------------------------------------------------------
 --------
 SiF4 gas
 --------
 Symbolic Z-matrix:
 Charge =  0 Multiplicity = 1
 Si                   0     0.        0.        0. 
 F1                   0    a        a        a
 F2                   0    -a       -a       a
 F3                   0    a        -a       -a
 F4                   0    -a       a        -a
       Variables:
  a                     0.89628                  
 

 GradGradGradGradGradGradGradGradGradGradGradGradGradGradGradGradGradGrad
 Initialization pass.
                       ----------------------------
                       !    Initial Parameters    !
                       ! (Angstroms and Degrees)  !
 ----------------------                            ----------------------
 !      Name          Value   Derivative information (Atomic Units)     !
 ------------------------------------------------------------------------
 !        a          0.8963   estimate D2E/DX2                          !
 ------------------------------------------------------------------------
 Number of steps in this run=  20 maximum allowed number of steps= 100.
 GradGradGradGradGradGradGradGradGradGradGradGradGradGradGradGradGradGrad

 ------------------------------------------------------------------------
                         Z-MATRIX (ANGSTROMS AND DEGREES)
 CD Cent Atom  N1     Length/X     N2    Alpha/Y     N3     Beta/Z      J
 ------------------------------------------------------------------------
   1   1  Si    0   0.000000          0.000000          0.000000
   2   2  F     0   0.896279          0.896279          0.896279
   3   3  F     0  -0.896279         -0.896279          0.896279
   4   4  F     0   0.896279         -0.896279         -0.896279
   5   5  F     0  -0.896279          0.896279         -0.896279
 ------------------------------------------------------------------------
                    Distance matrix (angstroms):
                    1          2          3          4          5
     1  Si   0.000000
     2  F    1.552400   0.000000
     3  F    1.552400   2.535059   0.000000
     4  F    1.552400   2.535059   2.535059   0.000000
     5  F    1.552400   2.535059   2.535059   2.535059   0.000000
                           Interatomic angles:
      F2-Si1-F3=109.4712      F2-Si1-F4=109.4712      F3-Si1-F4=109.4712
       F2-F3-F4= 60.          F2-Si1-F5=109.4712      F3-Si1-F5=109.4712
       F2-F3-F5= 60.          F4-Si1-F5=109.4712       F2-F4-F5= 60.    
       F3-F4-F5= 60.    
 Framework group  TD[O(Si),4C3(F)]
 Deg. of freedom     1
                         Standard orientation:                         
 ---------------------------------------------------------------------
 Center     Atomic     Atomic              Coordinates (Angstroms)
 Number     Number      Type              X           Y           Z
 ---------------------------------------------------------------------
    1         14             0        0.000000    0.000000    0.000000
    2          9             0        0.896279    0.896279    0.896279
    3          9             0       -0.896279   -0.896279    0.896279
    4          9             0        0.896279   -0.896279   -0.896279
    5          9             0       -0.896279    0.896279   -0.896279
 ---------------------------------------------------------------------
 Rotational constants (GHZ):      4.1392732      4.1392732      4.1392732
 AO basis set in the form of general basis input:
  1 0
 S   2 1.00       0.000000000000
      0.1222000000D+01 -0.5707339030D+00
      0.2595000000D+00  0.1282382607D+01
 S   1 1.00       0.000000000000
      0.9310000000D-01  0.1000000000D+01
 P   2 1.00       0.000000000000
      0.2580000000D+01 -0.7772499747D-01
      0.2984000000D+00  0.1019786967D+01
 P   1 1.00       0.000000000000
      0.8850000000D-01  0.1000000000D+01
 D   1 1.00       0.000000000000
      0.2960000000D+00  0.1000000000D+01
 ****
  2 0
 S   7 1.00       0.000000000000
      0.9995000000D+04  0.1165998577D-02
      0.1506000000D+04  0.8875989168D-02
      0.3503000000D+03  0.4237994828D-01
      0.1041000000D+03  0.1429288256D+00
      0.3484000000D+02  0.3553715663D+00
      0.1222000000D+02  0.4620844361D+00
      0.4369000000D+01  0.1408478281D+00
 S   2 1.00       0.000000000000
      0.1222000000D+02 -0.1484519214D+00
      0.1208000000D+01  0.1055269442D+01
 S   1 1.00       0.000000000000
      0.3634000000D+00  0.1000000000D+01
 P   4 1.00       0.000000000000
      0.4436000000D+02  0.2087600240D-01
      0.1008000000D+02  0.1301070149D+00
      0.2996000000D+01  0.3961660455D+00
      0.9383000000D+00  0.6204040713D+00
 P   1 1.00       0.000000000000
      0.2733000000D+00  0.1000000000D+01
 P   1 1.00       0.000000000000
      0.7370000000D-01  0.1000000000D+01
 D   1 1.00       0.000000000000
      0.1577000000D+01  0.1000000000D+01
 ****
  3 0
 S   7 1.00       0.000000000000
      0.9995000000D+04  0.1165998577D-02
      0.1506000000D+04  0.8875989168D-02
      0.3503000000D+03  0.4237994828D-01
      0.1041000000D+03  0.1429288256D+00
      0.3484000000D+02  0.3553715663D+00
      0.1222000000D+02  0.4620844361D+00
      0.4369000000D+01  0.1408478281D+00
 S   2 1.00       0.000000000000
      0.1222000000D+02 -0.1484519214D+00
      0.1208000000D+01  0.1055269442D+01
 S   1 1.00       0.000000000000
      0.3634000000D+00  0.1000000000D+01
 P   4 1.00       0.000000000000
      0.4436000000D+02  0.2087600240D-01
      0.1008000000D+02  0.1301070149D+00
      0.2996000000D+01  0.3961660455D+00
      0.9383000000D+00  0.6204040713D+00
 P   1 1.00       0.000000000000
      0.2733000000D+00  0.1000000000D+01
 P   1 1.00       0.000000000000
      0.7370000000D-01  0.1000000000D+01
 D   1 1.00       0.000000000000
      0.1577000000D+01  0.1000000000D+01
 ****
  4 0
 S   7 1.00       0.000000000000
      0.9995000000D+04  0.1165998577D-02
      0.1506000000D+04  0.8875989168D-02
      0.3503000000D+03  0.4237994828D-01
      0.1041000000D+03  0.1429288256D+00
      0.3484000000D+02  0.3553715663D+00
      0.1222000000D+02  0.4620844361D+00
      0.4369000000D+01  0.1408478281D+00
 S   2 1.00       0.000000000000
      0.1222000000D+02 -0.1484519214D+00
      0.1208000000D+01  0.1055269442D+01
 S   1 1.00       0.000000000000
      0.3634000000D+00  0.1000000000D+01
 P   4 1.00       0.000000000000
      0.4436000000D+02  0.2087600240D-01
      0.1008000000D+02  0.1301070149D+00
      0.2996000000D+01  0.3961660455D+00
      0.9383000000D+00  0.6204040713D+00
 P   1 1.00       0.000000000000
      0.2733000000D+00  0.1000000000D+01
 P   1 1.00       0.000000000000
      0.7370000000D-01  0.1000000000D+01
 D   1 1.00       0.000000000000
      0.1577000000D+01  0.1000000000D+01
 ****
  5 0
 S   7 1.00       0.000000000000
      0.9995000000D+04  0.1165998577D-02
      0.1506000000D+04  0.8875989168D-02
      0.3503000000D+03  0.4237994828D-01
      0.1041000000D+03  0.1429288256D+00
      0.3484000000D+02  0.3553715663D+00
      0.1222000000D+02  0.4620844361D+00
      0.4369000000D+01  0.1408478281D+00
 S   2 1.00       0.000000000000
      0.1222000000D+02 -0.1484519214D+00
      0.1208000000D+01  0.1055269442D+01
 S   1 1.00       0.000000000000
      0.3634000000D+00  0.1000000000D+01
 P   4 1.00       0.000000000000
      0.4436000000D+02  0.2087600240D-01
      0.1008000000D+02  0.1301070149D+00
      0.2996000000D+01  0.3961660455D+00
      0.9383000000D+00  0.6204040713D+00
 P   1 1.00       0.000000000000
      0.2733000000D+00  0.1000000000D+01
 P   1 1.00       0.000000000000
      0.7370000000D-01  0.1000000000D+01
 D   1 1.00       0.000000000000
      0.1577000000D+01  0.1000000000D+01
 ****

    81 basis functions,   154 primitive gaussians,    86 cartesian basis functions
    20 alpha electrons       20 beta electrons
       nuclear repulsion energy       150.5356457380 Hartrees.
 NAtoms=    5 NActive=    5 NUniq=    2 SFac= 4.00D+00 NAtFMM=   60 Big=F
  24 Symmetry operations used in ECPInt.
 ECPInt:  NShTT=     561 NPrTT=    2964 LenC2=     556 LenP2D=    2268.
 LDataN:  DoStor=F MaxTD1= 4 Len=   56
 LDataN:  DoStor=T MaxTD1= 4 Len=   56
 Harris functional with IExCor= 1009 diagonalized for initial guess.
 ExpMin= 7.37D-02 ExpMax= 9.99D+03 ExpMxC= 3.50D+02 IAcc=2 IRadAn=         4 AccDes= 0.00D+00
 HarFok:  IExCor=1009 AccDes= 0.00D+00 IRadAn=         4 IDoV=1
 ScaDFX=  1.000000  1.000000  1.000000  1.000000
 Initial guess orbital symmetries:
       Occupied  (A1) (T2) (T2) (T2) (A1) (T2) (T2) (T2) (A1) (T2)
                 (T2) (T2) (E) (E) (T2) (T2) (T2) (T1) (T1) (T1)
       Virtual   (A1) (T2) (T2) (T2) (T2) (T2) (T2) (A1) (E) (E)
                 (T2) (T2) (T2) (T1) (T1) (T1) (T2) (T2) (T2) (E)
                 (E) (A1) (T2) (T2) (T2) (T2) (T2) (T2) (E) (E)
                 (T1) (T1) (T1) (T2) (T2) (T2) (A1) (T2) (T2) (T2)
                 (A1) (T1) (T1) (T1) (E) (E) (T1) (T1) (T1) (T2)
                 (T2) (T2) (T2) (T2) (T2) (E) (E) (T2) (T2) (T2)
                 (A1)
 The electronic state of the initial guess is 1-A1.
 Integral accuracy reduced to 1.0D-05 until final iterations.
 Initial convergence to 1.0D-05 achieved.  Increase integral accuracy.
 SCF Done:  E(RPBE-PBE) =  -403.233274730     A.U. after   10 cycles
             Convg  =    0.4704D-08             -V/T =  2.0095
             S**2   =   0.0000

 **********************************************************************

            Population analysis using the SCF density.

 **********************************************************************

 Orbital symmetries:
       Occupied  (A1) (T2) (T2) (T2) (A1) (T2) (T2) (T2) (A1) (T2)
                 (T2) (T2) (E) (E) (T2) (T2) (T2) (T1) (T1) (T1)
       Virtual   (A1) (T2) (T2) (T2) (T2) (T2) (T2) (A1) (E) (E)
                 (T2) (T2) (T2) (T1) (T1) (T1) (T2) (T2) (T2) (E)
                 (E) (A1) (T2) (T2) (T2) (T2) (T2) (T2) (E) (E)
                 (T1) (T1) (T1) (T2) (T2) (T2) (A1) (T2) (T2) (T2)
                 (A1) (T1) (T1) (T1) (E) (E) (T1) (T1) (T1) (T2)
                 (T2) (T2) (T2) (T2) (T2) (E) (E) (T2) (T2) (T2)
                 (A1)
 The electronic state is 1-A1.
 Alpha  occ. eigenvalues --  -24.32165 -24.32165 -24.32165 -24.32165  -1.18049
 Alpha  occ. eigenvalues --   -1.14304  -1.14304  -1.14304  -0.56483  -0.50237
 Alpha  occ. eigenvalues --   -0.50237  -0.50237  -0.44264  -0.44264  -0.43307
 Alpha  occ. eigenvalues --   -0.43307  -0.43307  -0.39611  -0.39611  -0.39611
 Alpha virt. eigenvalues --   -0.02447   0.03876   0.03876   0.03876   0.11974
 Alpha virt. eigenvalues --    0.11974   0.11974   0.12623   0.12877   0.12877
 Alpha virt. eigenvalues --    0.14192   0.14192   0.14192   0.20344   0.20344
 Alpha virt. eigenvalues --    0.20344   0.43066   0.43066   0.43066   0.44190
 Alpha virt. eigenvalues --    0.44190   0.62746   0.73808   0.73808   0.73808
 Alpha virt. eigenvalues --    0.97104   0.97104   0.97104   0.97276   0.97276
 Alpha virt. eigenvalues --    1.01537   1.01537   1.01537   1.03056   1.03056
 Alpha virt. eigenvalues --    1.03056   1.93090   1.99284   1.99284   1.99284
 Alpha virt. eigenvalues --    3.15709   3.22233   3.22233   3.22233   3.26204
 Alpha virt. eigenvalues --    3.26204   3.26318   3.26318   3.26318   3.26762
 Alpha virt. eigenvalues --    3.26762   3.26762   3.40876   3.40876   3.40876
 Alpha virt. eigenvalues --    3.59108   3.59108   3.74855   3.74855   3.74855
 Alpha virt. eigenvalues --   10.55437
          Condensed to atoms (all electrons):
 Mulliken atomic charges:
              1
     1  Si   1.090210
     2  F   -0.272553
     3  F   -0.272553
     4  F   -0.272553
     5  F   -0.272553
 Sum of Mulliken charges=   0.00000
 Atomic charges with hydrogens summed into heavy atoms:
              1
     1  Si   1.090210
     2  F   -0.272553
     3  F   -0.272553
     4  F   -0.272553
     5  F   -0.272553
 Sum of Mulliken charges=   0.00000
 Electronic spatial extent (au):  <R**2>=   380.7258
 Charge=     0.0000 electrons
 Dipole moment (field-independent basis, Debye):
    X=     0.0000    Y=     0.0000    Z=     0.0000  Tot=     0.0000
 Breneman (CHELPG) radii used.
 Generate Potential Derived Charges using the Breneman model, NDens= 1.
 Grid spacing= 0.300 Box extension= 2.800
 NStep X,Y,Z=   26     26     26   Total possible points=       17576
 Number of Points to Fit=    5980

 **********************************************************************

            Electrostatic Properties Using The SCF Density

 **********************************************************************

       Atomic Center    1 is at   0.000000  0.000000  0.000000
       Atomic Center    2 is at   0.896279  0.896279  0.896279
       Atomic Center    3 is at  -0.896279 -0.896279  0.896279
       Atomic Center    4 is at   0.896279 -0.896279 -0.896279
       Atomic Center    5 is at  -0.896279  0.896279 -0.896279
    5980 points will be used for fitting atomic charges
 Fitting point charges to eletrostatic potential
 Charges from ESP fit, RMS=   0.00122 RRMS=   0.12597:
 Charge=   0.00000 Dipole=     0.0000     0.0000     0.0000 Tot=     0.0000
              1
     1  Si   1.357569
     2  F   -0.339392
     3  F   -0.339392
     4  F   -0.339392
     5  F   -0.339392
 -----------------------------------------------------------------

              Electrostatic Properties (Atomic Units)

 -----------------------------------------------------------------
    Center     Electric         -------- Electric Field --------
               Potential          X             Y             Z
 -----------------------------------------------------------------
    1 Atom     -1.771539
    2 Atom    -26.502890
    3 Atom    -26.502890
    4 Atom    -26.502890
    5 Atom    -26.502890
 -----------------------------------------------------------------
  24 Symmetry operations used in ECPInt.
 ECPInt:  NShTT=     561 NPrTT=    2964 LenC2=     556 LenP2D=    2268.
 LDataN:  DoStor=F MaxTD1= 5 Len=  102
 LDataN:  DoStor=T MaxTD1= 5 Len=  102
 Calling FoFCou, ICntrl=  2527 FMM=F ISym2X=1 I1Cent= 0 ISCF1= 0.

 GradGradGradGradGradGradGradGradGradGradGradGradGradGradGradGradGradGrad
 Step number   1 out of a maximum of  20
 All quantities printed in internal units (Hartrees-Bohrs-Radians)
 Second derivative matrix not updated -- first step.
     Eigenvalues ---    7.39751
 Linear search not attempted -- first point.
 Variable       Old X    -DE/DX   Delta X   Delta X   Delta X     New X
                                 (Linear)    (Quad)   (Total)
    a         1.69372   0.27973   0.00000   0.03776   0.03776   1.73148
         Item               Value     Threshold  Converged?
 Maximum Force            0.279728     0.000450     NO 
 RMS     Force            0.279728     0.000300     NO 
 Maximum Displacement     0.037760     0.001800     NO 
 RMS     Displacement     0.037760     0.001200     NO 
 GradGradGradGradGradGradGradGradGradGradGradGradGradGradGradGradGradGrad

 ------------------------------------------------------------------------
                         Z-MATRIX (ANGSTROMS AND DEGREES)
 CD Cent Atom  N1     Length/X     N2    Alpha/Y     N3     Beta/Z      J
 ------------------------------------------------------------------------
   1   1  Si    0   0.000000          0.000000          0.000000
   2   2  F     0   0.916260          0.916260          0.916260
   3   3  F     0  -0.916260         -0.916260          0.916260
   4   4  F     0   0.916260         -0.916260         -0.916260
   5   5  F     0  -0.916260          0.916260         -0.916260
 ------------------------------------------------------------------------
                    Distance matrix (angstroms):
                    1          2          3          4          5
     1  Si   0.000000
     2  F    1.587009   0.000000
     3  F    1.587009   2.591575   0.000000
     4  F    1.587009   2.591575   2.591575   0.000000
     5  F    1.587009   2.591575   2.591575   2.591575   0.000000
                           Interatomic angles:
      F2-Si1-F3=109.4712      F2-Si1-F4=109.4712      F3-Si1-F4=109.4712
       F3-F2-F4= 60.          F2-Si1-F5=109.4712      F3-Si1-F5=109.4712
       F3-F2-F5= 60.          F4-Si1-F5=109.4712       F4-F2-F5= 60.    
       F4-F3-F5= 60.    
 Framework group  TD[O(Si),4C3(F)]
 Deg. of freedom     1
                         Standard orientation:                         
 ---------------------------------------------------------------------
 Center     Atomic     Atomic              Coordinates (Angstroms)
 Number     Number      Type              X           Y           Z
 ---------------------------------------------------------------------
    1         14             0        0.000000    0.000000    0.000000
    2          9             0        0.916260    0.916260    0.916260
    3          9             0       -0.916260   -0.916260    0.916260
    4          9             0        0.916260   -0.916260   -0.916260
    5          9             0       -0.916260    0.916260   -0.916260
 ---------------------------------------------------------------------
 Rotational constants (GHZ):      3.9607044      3.9607044      3.9607044
    81 basis functions,   154 primitive gaussians,    86 cartesian basis functions
    20 alpha electrons       20 beta electrons
       nuclear repulsion energy       147.2527852018 Hartrees.
 NAtoms=    5 NActive=    5 NUniq=    2 SFac= 4.00D+00 NAtFMM=   60 Big=F
  24 Symmetry operations used in ECPInt.
 ECPInt:  NShTT=     561 NPrTT=    2964 LenC2=     556 LenP2D=    2256.
 LDataN:  DoStor=F MaxTD1= 4 Len=   56
 LDataN:  DoStor=T MaxTD1= 4 Len=   56
 Initial guess read from the read-write file:
 Initial guess orbital symmetries:
       Occupied  (A1) (T2) (T2) (T2) (A1) (T2) (T2) (T2) (A1) (T2)
                 (T2) (T2) (E) (E) (T2) (T2) (T2) (T1) (T1) (T1)
       Virtual   (A1) (T2) (T2) (T2) (T2) (T2) (T2) (A1) (E) (E)
                 (T2) (T2) (T2) (T1) (T1) (T1) (T2) (T2) (T2) (E)
                 (E) (A1) (T2) (T2) (T2) (T2) (T2) (T2) (E) (E)
                 (T1) (T1) (T1) (T2) (T2) (T2) (A1) (T2) (T2) (T2)
                 (A1) (T1) (T1) (T1) (E) (E) (T1) (T1) (T1) (T2)
                 (T2) (T2) (T2) (T2) (T2) (E) (E) (T2) (T2) (T2)
                 (A1)
 Harris functional with IExCor= 1009 diagonalized for initial guess.
 ExpMin= 7.37D-02 ExpMax= 9.99D+03 ExpMxC= 3.50D+02 IAcc=2 IRadAn=         4 AccDes= 0.00D+00
 HarFok:  IExCor=1009 AccDes= 0.00D+00 IRadAn=         4 IDoV=1
 ScaDFX=  1.000000  1.000000  1.000000  1.000000
 Integral accuracy reduced to 1.0D-05 until final iterations.
 Initial convergence to 1.0D-05 achieved.  Increase integral accuracy.
 SCF Done:  E(RPBE-PBE) =  -403.239900035     A.U. after   10 cycles
             Convg  =    0.2683D-08             -V/T =  2.0102
             S**2   =   0.0000
  24 Symmetry operations used in ECPInt.
 ECPInt:  NShTT=     561 NPrTT=    2964 LenC2=     556 LenP2D=    2256.
 LDataN:  DoStor=F MaxTD1= 5 Len=  102
 LDataN:  DoStor=T MaxTD1= 5 Len=  102
 Calling FoFCou, ICntrl=  2527 FMM=F ISym2X=1 I1Cent= 0 ISCF1= 0.

 GradGradGradGradGradGradGradGradGradGradGradGradGradGradGradGradGradGrad
 Step number   2 out of a maximum of  20
 All quantities printed in internal units (Hartrees-Bohrs-Radians)
 Trust test= 1.25D+00 RLast= 3.78D-02 DXMaxT set to 3.00D-01
     Eigenvalues ---    5.35687
 Quartic linear search produced a step of  0.44006.
 Variable       Old X    -DE/DX   Delta X   Delta X   Delta X     New X
                                 (Linear)    (Quad)   (Total)
    a         1.73148   0.07745   0.01662   0.00000   0.01662   1.74810
         Item               Value     Threshold  Converged?
 Maximum Force            0.077453     0.000450     NO 
 RMS     Force            0.077453     0.000300     NO 
 Maximum Displacement     0.016617     0.001800     NO 
 RMS     Displacement     0.016617     0.001200     NO 
 GradGradGradGradGradGradGradGradGradGradGradGradGradGradGradGradGradGrad

 ------------------------------------------------------------------------
                         Z-MATRIX (ANGSTROMS AND DEGREES)
 CD Cent Atom  N1     Length/X     N2    Alpha/Y     N3     Beta/Z      J
 ------------------------------------------------------------------------
   1   1  Si    0   0.000000          0.000000          0.000000
   2   2  F     0   0.925053          0.925053          0.925053
   3   3  F     0  -0.925053         -0.925053          0.925053
   4   4  F     0   0.925053         -0.925053         -0.925053
   5   5  F     0  -0.925053          0.925053         -0.925053
 ------------------------------------------------------------------------
                    Distance matrix (angstroms):
                    1          2          3          4          5
     1  Si   0.000000
     2  F    1.602240   0.000000
     3  F    1.602240   2.616446   0.000000
     4  F    1.602240   2.616446   2.616446   0.000000
     5  F    1.602240   2.616446   2.616446   2.616446   0.000000
                           Interatomic angles:
      F2-Si1-F3=109.4712      F2-Si1-F4=109.4712      F3-Si1-F4=109.4712
       F3-F2-F4= 60.          F2-Si1-F5=109.4712      F3-Si1-F5=109.4712
       F3-F2-F5= 60.          F4-Si1-F5=109.4712       F4-F2-F5= 60.    
       F4-F3-F5= 60.    
 Framework group  TD[O(Si),4C3(F)]
 Deg. of freedom     1
                         Standard orientation:                         
 ---------------------------------------------------------------------
 Center     Atomic     Atomic              Coordinates (Angstroms)
 Number     Number      Type              X           Y           Z
 ---------------------------------------------------------------------
    1         14             0        0.000000    0.000000    0.000000
    2          9             0        0.925053    0.925053    0.925053
    3          9             0       -0.925053   -0.925053    0.925053
    4          9             0        0.925053   -0.925053   -0.925053
    5          9             0       -0.925053    0.925053   -0.925053
 ---------------------------------------------------------------------
 Rotational constants (GHZ):      3.8857642      3.8857642      3.8857642
    81 basis functions,   154 primitive gaussians,    86 cartesian basis functions
    20 alpha electrons       20 beta electrons
       nuclear repulsion energy       145.8530537013 Hartrees.
 NAtoms=    5 NActive=    5 NUniq=    2 SFac= 4.00D+00 NAtFMM=   60 Big=F
  24 Symmetry operations used in ECPInt.
 ECPInt:  NShTT=     561 NPrTT=    2964 LenC2=     556 LenP2D=    2256.
 LDataN:  DoStor=F MaxTD1= 4 Len=   56
 LDataN:  DoStor=T MaxTD1= 4 Len=   56
 Initial guess read from the read-write file:
 Initial guess orbital symmetries:
       Occupied  (A1) (T2) (T2) (T2) (A1) (T2) (T2) (T2) (A1) (T2)
                 (T2) (T2) (E) (E) (T2) (T2) (T2) (T1) (T1) (T1)
       Virtual   (A1) (T2) (T2) (T2) (T2) (T2) (T2) (A1) (E) (E)
                 (T2) (T2) (T2) (T1) (T1) (T1) (E) (E) (T2) (T2)
                 (T2) (A1) (T2) (T2) (T2) (T2) (T2) (T2) (E) (E)
                 (T1) (T1) (T1) (T2) (T2) (T2) (A1) (T2) (T2) (T2)
                 (A1) (T1) (T1) (T1) (E) (E) (T1) (T1) (T1) (T2)
                 (T2) (T2) (T2) (T2) (T2) (E) (E) (T2) (T2) (T2)
                 (A1)
 SCF Done:  E(RPBE-PBE) =  -403.240532701     A.U. after    7 cycles
             Convg  =    0.5920D-09             -V/T =  2.0104
             S**2   =   0.0000
  24 Symmetry operations used in ECPInt.
 ECPInt:  NShTT=     561 NPrTT=    2964 LenC2=     556 LenP2D=    2256.
 LDataN:  DoStor=F MaxTD1= 5 Len=  102
 LDataN:  DoStor=T MaxTD1= 5 Len=  102
 Calling FoFCou, ICntrl=  2527 FMM=F ISym2X=1 I1Cent= 0 ISCF1= 0.

 GradGradGradGradGradGradGradGradGradGradGradGradGradGradGradGradGradGrad
 Step number   3 out of a maximum of  20
 All quantities printed in internal units (Hartrees-Bohrs-Radians)
 Trust test= 1.16D+00 RLast= 1.66D-02 DXMaxT set to 3.00D-01
     Eigenvalues ---    4.67456
 Quartic linear search produced a step of -0.00300.
 Variable       Old X    -DE/DX   Delta X   Delta X   Delta X     New X
                                 (Linear)    (Quad)   (Total)
    a         1.74810  -0.00022  -0.00005   0.00000  -0.00005   1.74805
         Item               Value     Threshold  Converged?
 Maximum Force            0.000223     0.000450     YES
 RMS     Force            0.000223     0.000300     YES
 Maximum Displacement     0.000050     0.001800     YES
 RMS     Displacement     0.000050     0.001200     YES
 Optimization completed.
    -- Stationary point found.
                       ----------------------------
                       !   Optimized Parameters   !
                       ! (Angstroms and Degrees)  !
 ----------------------                            ----------------------
 !      Name          Value   Derivative information (Atomic Units)     !
 ------------------------------------------------------------------------
 !        a          0.9251   -DE/DX =   -0.0002                        !
 ------------------------------------------------------------------------
 GradGradGradGradGradGradGradGradGradGradGradGradGradGradGradGradGradGrad

 ------------------------------------------------------------------------
                         Z-MATRIX (ANGSTROMS AND DEGREES)
 CD Cent Atom  N1     Length/X     N2    Alpha/Y     N3     Beta/Z      J
 ------------------------------------------------------------------------
   1   1  Si    0   0.000000          0.000000          0.000000
   2   2  F     0   0.925053          0.925053          0.925053
   3   3  F     0  -0.925053         -0.925053          0.925053
   4   4  F     0   0.925053         -0.925053         -0.925053
   5   5  F     0  -0.925053          0.925053         -0.925053
 ------------------------------------------------------------------------
                    Distance matrix (angstroms):
                    1          2          3          4          5
     1  Si   0.000000
     2  F    1.602240   0.000000
     3  F    1.602240   2.616446   0.000000
     4  F    1.602240   2.616446   2.616446   0.000000
     5  F    1.602240   2.616446   2.616446   2.616446   0.000000
                           Interatomic angles:
      F2-Si1-F3=109.4712      F2-Si1-F4=109.4712      F3-Si1-F4=109.4712
       F3-F2-F4= 60.          F2-Si1-F5=109.4712      F3-Si1-F5=109.4712
       F3-F2-F5= 60.          F4-Si1-F5=109.4712       F4-F2-F5= 60.    
       F4-F3-F5= 60.    
 Framework group  TD[O(Si),4C3(F)]
 Deg. of freedom     1
                         Standard orientation:                         
 ---------------------------------------------------------------------
 Center     Atomic     Atomic              Coordinates (Angstroms)
 Number     Number      Type              X           Y           Z
 ---------------------------------------------------------------------
    1         14             0        0.000000    0.000000    0.000000
    2          9             0        0.925053    0.925053    0.925053
    3          9             0       -0.925053   -0.925053    0.925053
    4          9             0        0.925053   -0.925053   -0.925053
    5          9             0       -0.925053    0.925053   -0.925053
 ---------------------------------------------------------------------
 Rotational constants (GHZ):      3.8857642      3.8857642      3.8857642

 **********************************************************************

            Population analysis using the SCF density.

 **********************************************************************

 Orbital symmetries:
       Occupied  (A1) (T2) (T2) (T2) (A1) (T2) (T2) (T2) (A1) (T2)
                 (T2) (T2) (E) (E) (T2) (T2) (T2) (T1) (T1) (T1)
       Virtual   (A1) (T2) (T2) (T2) (T2) (T2) (T2) (A1) (E) (E)
                 (T2) (T2) (T2) (T1) (T1) (T1) (E) (E) (T2) (T2)
                 (T2) (A1) (T2) (T2) (T2) (T2) (T2) (T2) (E) (E)
                 (T1) (T1) (T1) (T2) (T2) (T2) (A1) (T2) (T2) (T2)
                 (A1) (T1) (T1) (T1) (E) (E) (T1) (T1) (T1) (T2)
                 (T2) (T2) (T2) (T2) (T2) (E) (E) (T2) (T2) (T2)
                 (A1)
 The electronic state is 1-A1.
 Alpha  occ. eigenvalues --  -24.32611 -24.32611 -24.32611 -24.32611  -1.16715
 Alpha  occ. eigenvalues --   -1.13546  -1.13546  -1.13546  -0.56497  -0.49725
 Alpha  occ. eigenvalues --   -0.49725  -0.49725  -0.43591  -0.43591  -0.42884
 Alpha  occ. eigenvalues --   -0.42884  -0.42884  -0.39532  -0.39532  -0.39532
 Alpha virt. eigenvalues --   -0.05367   0.02670   0.02670   0.02670   0.10997
 Alpha virt. eigenvalues --    0.10997   0.10997   0.12101   0.12614   0.12614
 Alpha virt. eigenvalues --    0.13323   0.13323   0.13323   0.20129   0.20129
 Alpha virt. eigenvalues --    0.20129   0.41462   0.41462   0.42465   0.42465
 Alpha virt. eigenvalues --    0.42465   0.66597   0.68047   0.68047   0.68047
 Alpha virt. eigenvalues --    0.97428   0.97428   0.97428   0.98482   0.98482
 Alpha virt. eigenvalues --    1.00117   1.00117   1.00117   1.01759   1.01759
 Alpha virt. eigenvalues --    1.01759   1.95198   1.96706   1.96706   1.96706
 Alpha virt. eigenvalues --    3.15483   3.23021   3.23021   3.23021   3.26669
 Alpha virt. eigenvalues --    3.26669   3.26743   3.26743   3.26743   3.27099
 Alpha virt. eigenvalues --    3.27099   3.27099   3.38431   3.38431   3.38431
 Alpha virt. eigenvalues --    3.54006   3.54006   3.70415   3.70415   3.70415
 Alpha virt. eigenvalues --    9.18682
          Condensed to atoms (all electrons):
 Mulliken atomic charges:
              1
     1  Si   1.160699
     2  F   -0.290175
     3  F   -0.290175
     4  F   -0.290175
     5  F   -0.290175
 Sum of Mulliken charges=   0.00000
 Atomic charges with hydrogens summed into heavy atoms:
              1
     1  Si   1.160699
     2  F   -0.290175
     3  F   -0.290175
     4  F   -0.290175
     5  F   -0.290175
 Sum of Mulliken charges=   0.00000
 Electronic spatial extent (au):  <R**2>=   401.9889
 Charge=     0.0000 electrons
 Dipole moment (field-independent basis, Debye):
    X=     0.0000    Y=     0.0000    Z=     0.0000  Tot=     0.0000
 Breneman (CHELPG) radii used.
 Generate Potential Derived Charges using the Breneman model, NDens= 1.
 Grid spacing= 0.300 Box extension= 2.800
 NStep X,Y,Z=   26     26     26   Total possible points=       17576
 Number of Points to Fit=    5896

 **********************************************************************

            Electrostatic Properties Using The SCF Density

 **********************************************************************

       Atomic Center    1 is at   0.000000  0.000000  0.000000
       Atomic Center    2 is at   0.925053  0.925053  0.925053
       Atomic Center    3 is at  -0.925053 -0.925053  0.925053
       Atomic Center    4 is at   0.925053 -0.925053 -0.925053
       Atomic Center    5 is at  -0.925053  0.925053 -0.925053
    5896 points will be used for fitting atomic charges
 Fitting point charges to eletrostatic potential
 Charges from ESP fit, RMS=   0.00131 RRMS=   0.12731:
 Charge=   0.00000 Dipole=     0.0000     0.0000     0.0000 Tot=     0.0000
              1
     1  Si   1.330862
     2  F   -0.332716
     3  F   -0.332716
     4  F   -0.332716
     5  F   -0.332716
 -----------------------------------------------------------------

              Electrostatic Properties (Atomic Units)

 -----------------------------------------------------------------
    Center     Electric         -------- Electric Field --------
               Potential          X             Y             Z
 -----------------------------------------------------------------
    1 Atom     -1.759333
    2 Atom    -26.498580
    3 Atom    -26.498580
    4 Atom    -26.498580
    5 Atom    -26.498580
 -----------------------------------------------------------------
 1\1\GINC-H09\FOpt\RPBEPBE\Gen\F4Si1\JAM31\30-Apr-2004\1\\#T PBEPBE/LAN
 L2DZ PSEUDO=LANL2 EXTRABASIS POP=CHELPG GFINPUT SCF=TIGHT OPT=(Z-MATRI
 X)\\SiF4 gas\\0,1\Si,0,0.,0.,0.\F,0,a,a,a\F,0,-a,-a,a\F,0,a,-a,-a\F,0,
 -a,a,-a\\a=0.92505346\\Version=x86-Linux-G03RevB.05\State=1-A1\HF=-403
 .2405327\RMSD=5.920e-10\RMSF=1.663e-05\Dipole=0.,0.,0.\PG=TD [O(Si1),4
 C3(F1)]\\@


 IT WAS A GAME, A VERY INTERESTING GAME ONE COULD
 PLAY.  WHENEVER ONE SOLVED ONE OF THE LITTLE PROBLEMS,
 ONE COULD WRITE A PAPER ABOUT IT.  IT WAS VERY EASY IN
 THOSE DAYS FOR ANY SECOND-RATE PHYSICIST TO DO
 FIRST-RATE WORK.  THERE HAS NOT BEEN SUCH A GLORIOUS
 TIME SINCE.  IT IS VERY DIFFICULT NOW FOR A FIRST-RATE
 PHYSICIST TO DO SECOND-RATE WORK.
     P.A.M. DIRAC, ON THE EARLY DAYS OF QUANTUM MECHANICS
                   DIRECTIONS IN PHYSICS, 1978, P. 7
 Job cpu time:  0 days  0 hours  1 minutes  3.1 seconds.
 File lengths (MBytes):  RWF=     11 Int=      0 D2E=      0 Chk=      7 Scr=      1
 Normal termination of Gaussian 03 at Fri Apr 30 13:25:27 2004.
