 Entering Gaussian System, Link 0=g03
 Initial command:
 /mf/frisch/g03/l1.exe /gordy/s0/scratch/Gau-957164.inp -scrdir=/gordy/s0/scratch/,17000mw,/gordy/s1/scratch/,17000mw
 Default is to use a total of   4 processors:
                                4 via shared-memory
                                1 via Linda
 Entering Link 1 = /mf/frisch/g03/l1.exe PID=    957037.
  
 Copyright (c) 1988,1990,1992,1993,1995,1998,2003, Gaussian, Inc.
                  All Rights Reserved.
  
 This is the Gaussian(R) 03 program.  It is based on the
 the Gaussian(R) 98 system (copyright 1998, Gaussian, Inc.),
 the Gaussian(R) 94 system (copyright 1995, Gaussian, Inc.),
 the Gaussian 92(TM) system (copyright 1992, Gaussian, Inc.),
 the Gaussian 90(TM) system (copyright 1990, Gaussian, Inc.),
 the Gaussian 88(TM) system (copyright 1988, Gaussian, Inc.),
 the Gaussian 86(TM) system (copyright 1986, Carnegie Mellon
 University), and the Gaussian 82(TM) system (copyright 1983,
 Carnegie Mellon University). Gaussian is a federally registered
 trademark of Gaussian, Inc.
  
 This software contains proprietary and confidential information,
 including trade secrets, belonging to Gaussian, Inc.
  
 This software is provided under written license and may be
 used, copied, transmitted, or stored only in accord with that
 written license.
  
 The following legend is applicable only to US Government
 contracts under DFARS:
  
                    RESTRICTED RIGHTS LEGEND
  
 Use, duplication or disclosure by the US Government is subject
 to restrictions as set forth in subparagraph (c)(1)(ii) of the
 Rights in Technical Data and Computer Software clause at DFARS
 252.227-7013.
  
 Gaussian, Inc.
 Carnegie Office Park, Building 6, Pittsburgh, PA 15106 USA
  
 The following legend is applicable only to US Government
 contracts under FAR:
  
                    RESTRICTED RIGHTS LEGEND
  
 Use, reproduction and disclosure by the US Government is subject
 to restrictions as set forth in subparagraph (c) of the
 Commercial Computer Software - Restricted Rights clause at FAR
 52.227-19.
  
 Gaussian, Inc.
 Carnegie Office Park, Building 6, Pittsburgh, PA 15106 USA
  
  
 ---------------------------------------------------------------
 Warning -- This program may not be used in any manner that
 competes with the business of Gaussian, Inc. or will provide
 assistance to any competitor of Gaussian, Inc.  The licensee
 of this program is prohibited from giving any competitor of
 Gaussian, Inc. access to this program.  By using this program,
 the user acknowledges that Gaussian, Inc. is engaged in the
 business of creating and licensing software in the field of
 computational chemistry and represents and warrants to the
 licensee that it is not a competitor of Gaussian, Inc. and that
 it will not use this program in any manner prohibited above.
 ---------------------------------------------------------------
  

 Cite this work as:
 Gaussian 03, Revision B.05,
 M. J. Frisch, G. W. Trucks, H. B. Schlegel, G. E. Scuseria, 
 M. A. Robb, J. R. Cheeseman, J. A. Montgomery, Jr., T. Vreven, 
 K. N. Kudin, J. C. Burant, J. M. Millam, S. S. Iyengar, J. Tomasi, 
 V. Barone, B. Mennucci, M. Cossi, G. Scalmani, N. Rega, 
 G. A. Petersson, H. Nakatsuji, M. Hada, M. Ehara, K. Toyota, 
 R. Fukuda, J. Hasegawa, M. Ishida, T. Nakajima, Y. Honda, O. Kitao, 
 H. Nakai, M. Klene, X. Li, J. E. Knox, H. P. Hratchian, J. B. Cross, 
 C. Adamo, J. Jaramillo, R. Gomperts, R. E. Stratmann, O. Yazyev, 
 A. J. Austin, R. Cammi, C. Pomelli, J. W. Ochterski, P. Y. Ayala, 
 K. Morokuma, G. A. Voth, P. Salvador, J. J. Dannenberg, 
 V. G. Zakrzewski, S. Dapprich, A. D. Daniels, M. C. Strain, 
 O. Farkas, D. K. Malick, A. D. Rabuck, K. Raghavachari, 
 J. B. Foresman, J. V. Ortiz, Q. Cui, A. G. Baboul, S. Clifford, 
 J. Cioslowski, B. B. Stefanov, G. Liu, A. Liashenko, P. Piskorz, 
 I. Komaromi, R. L. Martin, D. J. Fox, T. Keith, M. A. Al-Laham, 
 C. Y. Peng, A. Nanayakkara, M. Challacombe, P. M. W. Gill, 
 B. Johnson, W. Chen, M. W. Wong, C. Gonzalez, and J. A. Pople, 
 Gaussian, Inc., Pittsburgh PA, 2003.
 
 ******************************************
 Gaussian 03:  SGI64-G03RevB.05  8-Nov-2003
                10-Nov-2003 
 ******************************************
 %mem=80Mw
 ----------------------------------------------------------
 #p lsda/gen pseudo=lanl1 opt=(modred,expert) units=au test
 ----------------------------------------------------------
 1/14=-1,18=120,20=1,21=1,26=3,38=1/1,3;
 2/9=110,17=6,18=5,40=1/2;
 3/5=7,11=2,16=1,17=4,25=1,30=1,74=205/1,2,3;
 4//1;
 5/5=2,38=5/2;
 6/7=2,8=2,9=2,10=2,28=1/1;
 7//1,2,3,16;
 1/14=-1,18=20/3(1);
 99//99;
 2/9=110/2;
 3/5=7,6=1,11=2,16=1,17=4,25=1,30=1,74=205,82=7/1,2,3;
 4/5=5,16=3/1;
 5/5=2,38=5/2;
 7//1,2,3,16;
 1/14=-1,18=20/3(-5);
 2/9=110/2;
 6/7=2,8=2,9=2,10=2,19=2,28=1/1;
 99/9=1/99;
 Leave Link    1 at Mon Nov 10 10:27:07 2003, MaxMem=   83886080 cpu:       0.8
 (Enter /mf/frisch/g03/l101.exe)
 -----------------------------------
 Gaussian Test Job 589: NaCl 3d test
 -----------------------------------
 Symbolic Z-matrix:
 Charge =  0 Multiplicity = 1
 Na                    0.        0.        0. 
 Cl                    0.        0.        5.3 
 Cl                    0.        5.3       0. 
 Na                    0.        5.3       5.3 
 Cl                    5.3       0.        0. 
 Na                    5.3       0.        5.3 
 Na                    5.3       5.3       0. 
 Cl                    5.3       5.3       5.3 
 Tv                    10.6      0.        0. 
 Tv                    0.        10.6      0. 
 Tv                    0.        0.        10.6 
 
 The following ModRedundant input section has been read:
 D    *    *    *    * K                                                       
                    Isotopes and Nuclear Properties:

  Atom         1           2           3           4           5           6           7           8
 IAtWgt=          23          35          35          23          35          23          23          35
 AtmWgt=  22.9897697  34.9688527  34.9688527  22.9897697  34.9688527  22.9897697  22.9897697  34.9688527
 IAtSpn=           3           3           3           3           3           3           3           3
 AtZEff=   0.0000000   0.0000000   0.0000000   0.0000000   0.0000000   0.0000000   0.0000000   0.0000000
 AtQMom=  10.2000000  -8.2490000  -8.2490000  10.2000000  -8.2490000  10.2000000  10.2000000  -8.2490000
 AtGFac=   2.2175200   0.8218740   0.8218740   2.2175200   0.8218740   2.2175200   2.2175200   0.8218740
 Leave Link  101 at Mon Nov 10 10:27:09 2003, MaxMem=   83886080 cpu:       1.8
 (Enter /mf/frisch/g03/l103.exe)

 GradGradGradGradGradGradGradGradGradGradGradGradGradGradGradGradGradGrad
 Berny optimization.
 Initialization pass.
                           ----------------------------
                           !    Initial Parameters    !
                           ! (Angstroms and Degrees)  !
 --------------------------                            --------------------------
 ! Name  Definition              Value          Derivative Info.                !
 --------------------------------------------------------------------------------
 ! R1    R(1,2)                  2.8046         estimate D2E/DX2                !
 ! R2    R(1,3)                  2.8046         estimate D2E/DX2                !
 ! R3    R(1,5)                  2.8046         estimate D2E/DX2                !
 ! R4    R(2,4)                  2.8046         estimate D2E/DX2                !
 ! R5    R(2,6)                  2.8046         estimate D2E/DX2                !
 ! R6    R(2,12)                 2.8046         estimate D2E/DX2                !
 ! R7    R(3,4)                  2.8046         estimate D2E/DX2                !
 ! R8    R(3,7)                  2.8046         estimate D2E/DX2                !
 ! R9    R(3,23)                 2.8046         estimate D2E/DX2                !
 ! R10   R(4,8)                  2.8046         estimate D2E/DX2                !
 ! R11   R(4,14)                 2.8046         estimate D2E/DX2                !
 ! R12   R(4,24)                 2.8046         estimate D2E/DX2                !
 ! R13   R(5,6)                  2.8046         estimate D2E/DX2                !
 ! R14   R(5,7)                  2.8046         estimate D2E/DX2                !
 ! R15   R(5,45)                 2.8046         estimate D2E/DX2                !
 ! R16   R(6,8)                  2.8046         estimate D2E/DX2                !
 ! R17   R(6,16)                 2.8046         estimate D2E/DX2                !
 ! R18   R(6,46)                 2.8046         estimate D2E/DX2                !
 ! R19   R(7,8)                  2.8046         estimate D2E/DX2                !
 ! R20   R(7,27)                 2.8046         estimate D2E/DX2                !
 ! R21   R(7,47)                 2.8046         estimate D2E/DX2                !
 ! R22   R(8,18)                 2.8046         estimate D2E/DX2                !
 ! R23   R(8,28)                 2.8046         estimate D2E/DX2                !
 ! R24   R(8,48)                 2.8046         estimate D2E/DX2                !
 ! A1    A(2,1,3)               90.0            estimate D2E/DX2                !
 ! A2    A(2,1,5)               90.0            estimate D2E/DX2                !
 ! A3    A(3,1,5)               90.0            estimate D2E/DX2                !
 ! A4    A(1,2,4)               90.0            estimate D2E/DX2                !
 ! A5    A(1,2,6)               90.0            estimate D2E/DX2                !
 ! A6    A(4,2,6)               90.0            estimate D2E/DX2                !
 ! A7    A(4,2,12)              90.0            estimate D2E/DX2                !
 ! A8    A(6,2,12)              90.0            estimate D2E/DX2                !
 ! A9    A(1,3,4)               90.0            estimate D2E/DX2                !
 ! A10   A(1,3,7)               90.0            estimate D2E/DX2                !
 ! A11   A(4,3,7)               90.0            estimate D2E/DX2                !
 ! A12   A(4,3,23)              90.0            estimate D2E/DX2                !
 ! A13   A(7,3,23)              90.0            estimate D2E/DX2                !
 ! A14   A(2,4,3)               90.0            estimate D2E/DX2                !
 ! A15   A(2,4,8)               90.0            estimate D2E/DX2                !
 ! A16   A(2,4,14)              90.0            estimate D2E/DX2                !
 ! A17   A(3,4,8)               90.0            estimate D2E/DX2                !
 ! A18   A(3,4,24)              90.0            estimate D2E/DX2                !
 ! A19   A(8,4,14)              90.0            estimate D2E/DX2                !
 ! A20   A(8,4,24)              90.0            estimate D2E/DX2                !
 ! A21   A(14,4,24)             90.0            estimate D2E/DX2                !
 ! A22   A(1,5,6)               90.0            estimate D2E/DX2                !
 ! A23   A(1,5,7)               90.0            estimate D2E/DX2                !
 ! A24   A(6,5,7)               90.0            estimate D2E/DX2                !
 ! A25   A(6,5,45)              90.0            estimate D2E/DX2                !
 ! A26   A(7,5,45)              90.0            estimate D2E/DX2                !
 ! A27   A(2,6,5)               90.0            estimate D2E/DX2                !
 ! A28   A(2,6,8)               90.0            estimate D2E/DX2                !
 ! A29   A(2,6,16)              90.0            estimate D2E/DX2                !
 ! A30   A(5,6,8)               90.0            estimate D2E/DX2                !
 ! A31   A(5,6,46)              90.0            estimate D2E/DX2                !
 ! A32   A(8,6,16)              90.0            estimate D2E/DX2                !
 ! A33   A(8,6,46)              90.0            estimate D2E/DX2                !
 ! A34   A(16,6,46)             90.0            estimate D2E/DX2                !
 ! A35   A(3,7,5)               90.0            estimate D2E/DX2                !
 ! A36   A(3,7,8)               90.0            estimate D2E/DX2                !
 ! A37   A(3,7,27)              90.0            estimate D2E/DX2                !
 ! A38   A(5,7,8)               90.0            estimate D2E/DX2                !
 ! A39   A(5,7,47)              90.0            estimate D2E/DX2                !
 ! A40   A(8,7,27)              90.0            estimate D2E/DX2                !
 ! A41   A(8,7,47)              90.0            estimate D2E/DX2                !
 ! A42   A(27,7,47)             90.0            estimate D2E/DX2                !
 ! A43   A(4,8,6)               90.0            estimate D2E/DX2                !
 ! A44   A(4,8,7)               90.0            estimate D2E/DX2                !
 ! A45   A(4,8,18)              90.0            estimate D2E/DX2                !
 ! A46   A(4,8,28)              90.0            estimate D2E/DX2                !
 ! A47   A(6,8,7)               90.0            estimate D2E/DX2                !
 ! A48   A(6,8,18)              90.0            estimate D2E/DX2                !
 ! A49   A(6,8,48)              90.0            estimate D2E/DX2                !
 ! A50   A(7,8,28)              90.0            estimate D2E/DX2                !
 ! A51   A(7,8,48)              90.0            estimate D2E/DX2                !
 ! A52   A(18,8,28)             90.0            estimate D2E/DX2                !
 ! A53   A(18,8,48)             90.0            estimate D2E/DX2                !
 ! A54   A(28,8,48)             90.0            estimate D2E/DX2                !
 ! A55   A(2,12,14)             90.0            estimate D2E/DX2                !
 ! A56   A(2,12,16)             90.0            estimate D2E/DX2                !
 ! A57   A(4,14,12)             90.0            estimate D2E/DX2                !
 ! A58   A(4,14,18)             90.0            estimate D2E/DX2                !
 ! A59   A(4,14,34)             90.0            estimate D2E/DX2                !
 ! A60   A(6,16,12)             90.0            estimate D2E/DX2                !
 ! A61   A(6,16,18)             90.0            estimate D2E/DX2                !
 ! A62   A(6,16,56)             90.0            estimate D2E/DX2                !
 ! A63   A(8,18,14)             90.0            estimate D2E/DX2                !
 ! A64   A(8,18,16)             90.0            estimate D2E/DX2                !
 ! A65   A(8,18,38)             90.0            estimate D2E/DX2                !
 ! A66   A(8,18,58)             90.0            estimate D2E/DX2                !
 ! A67   A(3,23,24)             90.0            estimate D2E/DX2                !
 ! A68   A(3,23,27)             90.0            estimate D2E/DX2                !
 ! A69   A(4,24,23)             90.0            estimate D2E/DX2                !
 ! A70   A(4,24,28)             90.0            estimate D2E/DX2                !
 ! A71   A(4,24,34)             90.0            estimate D2E/DX2                !
 ! A72   A(7,27,23)             90.0            estimate D2E/DX2                !
 ! A73   A(7,27,28)             90.0            estimate D2E/DX2                !
 ! A74   A(7,27,67)             90.0            estimate D2E/DX2                !
 ! A75   A(8,28,24)             90.0            estimate D2E/DX2                !
 ! A76   A(8,28,27)             90.0            estimate D2E/DX2                !
 ! A77   A(8,28,38)             90.0            estimate D2E/DX2                !
 ! A78   A(8,28,68)             90.0            estimate D2E/DX2                !
 ! A79   A(14,34,24)            90.0            estimate D2E/DX2                !
 ! A80   A(18,38,28)            90.0            estimate D2E/DX2                !
 ! A81   A(5,45,46)             90.0            estimate D2E/DX2                !
 ! A82   A(5,45,47)             90.0            estimate D2E/DX2                !
 ! A83   A(6,46,45)             90.0            estimate D2E/DX2                !
 ! A84   A(6,46,48)             90.0            estimate D2E/DX2                !
 ! A85   A(6,46,56)             90.0            estimate D2E/DX2                !
 ! A86   A(7,47,45)             90.0            estimate D2E/DX2                !
 ! A87   A(7,47,48)             90.0            estimate D2E/DX2                !
 ! A88   A(7,47,67)             90.0            estimate D2E/DX2                !
 ! A89   A(8,48,46)             90.0            estimate D2E/DX2                !
 ! A90   A(8,48,47)             90.0            estimate D2E/DX2                !
 ! A91   A(8,48,58)             90.0            estimate D2E/DX2                !
 ! A92   A(8,48,68)             90.0            estimate D2E/DX2                !
 ! A93   A(16,56,46)            90.0            estimate D2E/DX2                !
 ! A94   A(18,58,48)            90.0            estimate D2E/DX2                !
 ! A95   A(27,67,47)            90.0            estimate D2E/DX2                !
 ! A96   A(28,68,48)            90.0            estimate D2E/DX2                !
 ! A97   L(1,2,12,4,-2)        180.0            estimate D2E/DX2                !
 ! A98   L(1,3,23,4,-2)        180.0            estimate D2E/DX2                !
 ! A99   L(2,4,24,3,-2)        180.0            estimate D2E/DX2                !
 ! A100  L(3,4,14,2,-2)        180.0            estimate D2E/DX2                !
 ! A101  L(1,5,45,6,-2)        180.0            estimate D2E/DX2                !
 ! A102  L(2,6,46,5,-2)        180.0            estimate D2E/DX2                !
 ! A103  L(5,6,16,2,-2)        180.0            estimate D2E/DX2                !
 ! A104  L(3,7,47,5,-2)        180.0            estimate D2E/DX2                !
 ! A105  L(5,7,27,3,-2)        180.0            estimate D2E/DX2                !
 ! A106  L(4,8,48,6,-2)        180.0            estimate D2E/DX2                !
 ! A107  L(6,8,28,4,-2)        180.0            estimate D2E/DX2                !
 ! A108  L(7,8,18,4,-2)        180.0            estimate D2E/DX2                !
 ! A109  L(2,12,13,14,-2)      180.0            estimate D2E/DX2                !
 ! A110  L(4,14,15,12,-2)      180.0            estimate D2E/DX2                !
 ! A111  L(6,16,17,12,-2)      180.0            estimate D2E/DX2                !
 ! A112  L(8,18,19,14,-2)      180.0            estimate D2E/DX2                !
 ! A113  L(3,23,25,24,-2)      180.0            estimate D2E/DX2                !
 ! A114  L(4,24,26,23,-2)      180.0            estimate D2E/DX2                !
 ! A115  L(7,27,29,23,-2)      180.0            estimate D2E/DX2                !
 ! A116  L(8,28,30,24,-2)      180.0            estimate D2E/DX2                !
 ! A117  L(5,45,49,46,-2)      180.0            estimate D2E/DX2                !
 ! A118  L(6,46,50,45,-2)      180.0            estimate D2E/DX2                !
 ! A119  L(7,47,51,45,-2)      180.0            estimate D2E/DX2                !
 ! A120  L(8,48,52,46,-2)      180.0            estimate D2E/DX2                !
 --------------------------------------------------------------------------------
 Expert switch is set: DXMaxT, EigMax, EigMin relaxed.
 Trust Radius=3.00D+00 FncErr=1.00D-07 GrdErr=1.00D-06
 Number of steps in this run= 100 maximum allowed number of steps= 100.
 GradGradGradGradGradGradGradGradGradGradGradGradGradGradGradGradGradGrad

 Leave Link  103 at Mon Nov 10 10:27:09 2003, MaxMem=   83886080 cpu:       0.2
 (Enter /mf/frisch/g03/l202.exe)
                           Before rotation:                           
 ---------------------------------------------------------------------
 Center     Atomic     Atomic              Coordinates (Angstroms)
 Number     Number      Type              X           Y           Z
 ---------------------------------------------------------------------
    1         11             0        0.000000    0.000000    0.000000
    2         17             0        0.000000    0.000000    2.804639
    3         17             0        0.000000    2.804639    0.000000
    4         11             0        0.000000    2.804639    2.804639
    5         17             0        2.804639    0.000000    0.000000
    6         11             0        2.804639    0.000000    2.804639
    7         11             0        2.804639    2.804639    0.000000
    8         17             0        2.804639    2.804639    2.804639
    9         -2             0        5.609278    0.000000    0.000000
   10         -2             0        0.000000    5.609278    0.000000
   11         -2             0        0.000000    0.000000    5.609278
 ---------------------------------------------------------------------
 Lengths of translation vectors:      5.609278    5.609278    5.609278
  Angles of translation vectors:     90.000000   90.000000   90.000000
 ---------------------------------------------------------------------
                          Input orientation:                          
 ---------------------------------------------------------------------
 Center     Atomic     Atomic              Coordinates (Angstroms)
 Number     Number      Type              X           Y           Z
 ---------------------------------------------------------------------
    1         11             0       -1.402320   -1.402320   -1.402320
    2         17             0       -1.402320   -1.402320    1.402320
    3         17             0       -1.402320    1.402320   -1.402320
    4         11             0       -1.402320    1.402320    1.402320
    5         17             0        1.402320   -1.402320   -1.402320
    6         11             0        1.402320   -1.402320    1.402320
    7         11             0        1.402320    1.402320   -1.402320
    8         17             0        1.402320    1.402320    1.402320
    9         -2             0        5.609278    0.000000    0.000000
   10         -2             0        0.000000    5.609278    0.000000
   11         -2             0        0.000000    0.000000    5.609278
 ---------------------------------------------------------------------
 Lengths of translation vectors:      5.609278    5.609278    5.609278
  Angles of translation vectors:     90.000000   90.000000   90.000000
 ---------------------------------------------------------------------
                    Distance matrix (angstroms):
                    1          2          3          4          5
     1  Na   0.000000
     2  Cl   2.804639   0.000000
     3  Cl   2.804639   3.966359   0.000000
     4  Na   3.966359   2.804639   2.804639   0.000000
     5  Cl   2.804639   3.966359   3.966359   4.857778   0.000000
     6  Na   3.966359   2.804639   4.857778   3.966359   2.804639
     7  Na   3.966359   4.857778   2.804639   3.966359   2.804639
     8  Cl   4.857778   3.966359   3.966359   2.804639   3.966359
     9  TV   7.286666   7.286666   7.286666   7.286666   4.650968
    10  TV   7.286666   7.286666   4.650968   4.650968   7.286666
    11  TV   7.286666   4.650968   7.286666   4.650968   7.286666
                    6          7          8          9         10
     6  Na   0.000000
     7  Na   3.966359   0.000000
     8  Cl   2.804639   2.804639   0.000000
     9  TV   4.650968   4.650968   4.650968   0.000000
    10  TV   7.286666   4.650968   4.650968   7.932718   0.000000
    11  TV   4.650968   7.286666   4.650968   7.932718   7.932718
                   11
    11  TV   0.000000
 Symmetry turned off:
 Cannot cope with ghost atoms or with translation vectors.
 Stoichiometry    Cl4Na4
 Framework group  C1[X(Cl4Na4)]
 Deg. of freedom    18
 Full point group                 C1      NOp   1
 Leave Link  202 at Mon Nov 10 10:27:10 2003, MaxMem=   83886080 cpu:       0.2
 (Enter /mf/frisch/g03/l301.exe)
 General basis read from cards:  (5D, 7F)
 Centers:   1  4  6  7
 SP 3 1.00 0.000000000000
     Exponent=  1.4787406220D+00 Coefficients= -2.1962036900D-01  1.0587604290D-02
     Exponent=  4.1256488010D-01 Coefficients=  2.2559543360D-01  5.9516700530D-01
     Exponent=  1.6147509790D-01 Coefficients=  9.0039842600D-01  4.6200101200D-01
 ****
 Centers:   2  3  5  8
 SP 3 1.00 0.000000000000
     Exponent=  2.1293864950D+00 Coefficients= -2.1962036900D-01  1.0587604290D-02
     Exponent=  5.9409342740D-01 Coefficients=  2.2559543360D-01  5.9516700530D-01
     Exponent=  2.3252414100D-01 Coefficients=  9.0039842600D-01  4.6200101200D-01
 ****
 Integral buffers will be    131072 words long.
 Raffenetti 2 integral format.
 Two-electron integral symmetry is turned off.
    32 basis functions,    96 primitive gaussians,    32 cartesian basis functions
    16 alpha electrons       16 beta electrons
       nuclear repulsion energy        58.9241211119 Hartrees.
 IExCor= 205 DFT=T Ex=S Corr=VWN ExCW=0 ScaHFX=  0.000000
 ScaDFX=  1.000000  1.000000  1.000000  1.000000
 IRadAn=      0 IRanWt=     -1 IRanGd=            0 ICorTp=0
 NAtoms=    8 NActive=    8 NUniq=    8 SFac= 1.00D+00 NAtFMM=   60 Big=F
 Leave Link  301 at Mon Nov 10 10:27:10 2003, MaxMem=   83886080 cpu:       0.2
 (Enter /mf/frisch/g03/l302.exe)
 FOutLm=  100.00.
 Periodicity:                           1               1               1
 Max integer dimensions:               10              10              10
   PBC vector 1 X=    10.6000 Y=    0.0000 Z=    0.0000
   PBC vector 2 X=     0.0000 Y=   10.6000 Z=    0.0000
   PBC vector 3 X=     0.0000 Y=    0.0000 Z=   10.6000
  Recp vector 1 X=     0.0943 Y=    0.0000 Z=    0.0000
  Recp vector 2 X=     0.0000 Y=    0.0943 Z=    0.0000
  Recp vector 3 X=     0.0000 Y=    0.0000 Z=    0.0943
 Generated k point mesh (from -Pi to Pi):
 K space mesh: X=       8 Y=       8 Z=       8
 A half-cell shift: 1
 Using k point mesh (from -Pi to Pi):
 K space mesh: X=       8 Y=       8 Z=       8
 A half-cell shift: 1
 CountK=T Total number of k points:       0
 CountK=T Total number of k points:     256
 NPDir=3 NMtPBC=   233 NCelOv=   233 NCel=    5581 NClECP=   233 NCelD=    233
         NCelK=    466 NCelE2=   466 NClLst=   116 CellRange=   100.0.
 One-electron integrals computed using PRISM.
   1 Symmetry operations used in ECPInt.
 ECPInt:  NShTT=      36 NPrTT=     324 LenC2=    1497 LenP2D=    5256.
 LDataN:  DoStor=F MaxTD1= 3 Len=   28
 LDataN:  DoStor=T MaxTD1= 3 Len=   28
 NBasis=    32 RedAO= T  NBF=    32
 NBsUse=    32 1.00D-06 NBFU=    32
 Precomputing XC quadrature grid using
 IXCGrd= 2 IRadAn=           0 IRanWt=          -1 IRanGd=           0.
 RepCel:  MaxNCR=     233 NClRep=     233 NMtPBC=     233.
 NRdTot=     500 NPtTot=       64168 NUsed=       75125 NTot=       75157
 NSgBfM=   780   780   780   780.
 Leave Link  302 at Mon Nov 10 10:28:15 2003, MaxMem=   83886080 cpu:      64.8
 (Enter /mf/frisch/g03/l303.exe)
 DipDrv:  MaxL=1.
 Leave Link  303 at Mon Nov 10 10:28:16 2003, MaxMem=   83886080 cpu:       0.2
 (Enter /mf/frisch/g03/l401.exe)
 Harris functional with IExCor=  205 diagonalized for initial guess.
 RepCel:  MaxNCR=     233 NClRep=     233 NMtPBC=     233.
 HarFok:  IExCor= 205 AccDes= 0.00D+00 IRadAn=         0 IDoV=1
 ScaDFX=  1.000000  1.000000  1.000000  1.000000
 Harris En= -14254.0399564648    
 Leave Link  401 at Mon Nov 10 10:28:40 2003, MaxMem=   83886080 cpu:      23.6
 (Enter /mf/frisch/g03/l502.exe)
 Closed shell SCF:
 Requested convergence on RMS density matrix=1.00D-07 within 128 cycles.
 Requested convergence on MAX density matrix=1.00D-05.
 Requested convergence on             energy=1.00D-05.
 No special actions if energy rises.
 Using DIIS extrapolation, IDIIS=  1040.
 NCelOv=   233 NClRep=   233 NMtPBC=   233 NRecip=   430 NKPnt=     256.
 Two-electron integral symmetry not used.
        75124 words used for storage of precomputed grid.
 IEnd=    976014 IEndB=    976014 NGot=  83886080 MDV=  83172755
 LenX=  83172755
 Threshold for overlap eigenvalues 1.000D-06
           Ratio       Low      Low      Low      Low      Low     High
 Min    4.868D-01    1.4D+00  1.4D+00  1.3D+00  1.3D+00  1.2D+00  7.0D-01
 Max    5.111D-01    1.4D+00  1.4D+00  1.4D+00  1.4D+00  1.3D+00  7.1D-01
 S in ortho basis: MxErrOnDiag=  0.7216D-14 MxErrOfDiag=  0.6044D-14
 Fock matrices will be formed incrementally for  20 cycles.

 Cycle   1  Pass 0  IDiag  1:
 E=   (Non-Variational)  
 Sum_Occ: Avg-Min  2.77081D-01 Max-Avg  4.32161D-01 Dif  7.09242D-01 (eV)
 Alpha HOCO: -11.329579 LUCO:  -0.005317 indirect gap:  11.324262 direct gap:  11.324262 (eV)

 Diagonalized old Fock matrix for initial guess.
 Cycle   1  Pass 1  IDiag  1:
 FoFCou: FMM=T IPFlag=           0 FMFlag=      990000 FMFlg1=        4097
 NFxFlg=           0 DoJE=T BraDBF=F KetDBF=F FulRan=T.
 Symmetry not used in FoFCou.
 FMM levels:   3  Number of levels for PrismC:   1
 RepCel:  MaxNCR=     233 NClRep=     233 NMtPBC=     233.
 E= -59.4307779044345    
 DIIS: error= 2.21D-02 at cycle   1 NSaved=   1.
 NSaved= 1 IEnMin= 1 EnMin= -59.4307779044345     IErMin= 1 ErrMin= 2.21D-02
 ErrMax= 2.21D-02 EMaxC= 1.00D-01 BMatC= 1.61D-02 BMatP= 1.61D-02
 IDIUse=3 WtCom= 7.79D-01 WtEn= 2.21D-01
 Coeff-Com:  0.100D+01
 Coeff-En:   0.100D+01
 Coeff:      0.100D+01
 Sum_Occ: Avg-Min  1.03830D-01 Max-Avg  3.28582D-01 Dif  4.32412D-01 (eV)
 Alpha HOCO:  -0.016239 LUCO:  13.501277 indirect gap:  13.517516 direct gap:  13.518333 (eV)
 GapD=    2.000 DampG=2.000 DampE=0.250 DampFc=0.5000 IDamp=-1.
 Damping current iteration by 5.00D-01
 RMSDP=3.14D-04 MaxDP=1.45D-02              OVMax= 0.00D+00

 Cycle   2  Pass 1  IDiag  1:
 RMSU=  1.50D-04    CP:  9.94D-01
 RepCel:  MaxNCR=     233 NClRep=     233 NMtPBC=     233.
 E= -59.4409270226288     Delta-E=       -0.010149118194 Rises=F Damp=T
 DIIS: error= 8.72D-04 at cycle   2 NSaved=   2.
 NSaved= 2 IEnMin= 2 EnMin= -59.4409270226288     IErMin= 2 ErrMin= 8.72D-04
 ErrMax= 8.72D-04 EMaxC= 1.00D-01 BMatC= 2.57D-05 BMatP= 1.61D-02
 IDIUse=3 WtCom= 9.91D-01 WtEn= 8.72D-03
 Coeff-Com:  0.384D-01 0.962D+00
 Coeff-En:   0.000D+00 0.100D+01
 Coeff:      0.381D-01 0.962D+00
 Sum_Occ: Avg-Min  1.02254D-01 Max-Avg  3.23109D-01 Dif  4.25363D-01 (eV)
 Alpha HOCO:  -0.160875 LUCO:  13.450543 indirect gap:  13.611418 direct gap:  13.611780 (eV)
 RMSDP=1.42D-04 MaxDP=6.59D-03 DE=-1.01D-02 OVMax= 0.00D+00

 Cycle   3  Pass 1  IDiag  1:
 RMSU=  6.46D-06    CP:  9.89D-01  1.90D+00
 RepCel:  MaxNCR=     233 NClRep=     233 NMtPBC=     233.
 E= -59.4502526551594     Delta-E=       -0.009325632531 Rises=F Damp=F
 DIIS: error= 8.67D-04 at cycle   3 NSaved=   3.
 NSaved= 3 IEnMin= 3 EnMin= -59.4502526551594     IErMin= 3 ErrMin= 8.67D-04
 ErrMax= 8.67D-04 EMaxC= 1.00D-01 BMatC= 2.53D-05 BMatP= 2.57D-05
 IDIUse=3 WtCom= 9.91D-01 WtEn= 8.67D-03
 Coeff-Com:  0.400D-01 0.577D+01-0.481D+01
 Coeff-En:   0.000D+00 0.000D+00 0.100D+01
 Coeff:      0.396D-01 0.572D+01-0.476D+01
 Sum_Occ: Avg-Min  1.11552D-01 Max-Avg  3.55051D-01 Dif  4.66603D-01 (eV)
 Alpha HOCO:   0.469573 LUCO:  13.576787 indirect gap:  13.107213 direct gap:  13.109816 (eV)
 RMSDP=8.26D-05 MaxDP=4.16D-03 DE=-9.33D-03 OVMax= 0.00D+00

 Cycle   4  Pass 1  IDiag  1:
 RMSU=  8.14D-06    CP:  9.86D-01  2.38D+00 -3.00D+00
 RepCel:  MaxNCR=     233 NClRep=     233 NMtPBC=     233.
 E= -59.4484933561523     Delta-E=        0.001759299007 Rises=F Damp=F
 DIIS: error= 5.42D-03 at cycle   4 NSaved=   4.
 NSaved= 4 IEnMin= 3 EnMin= -59.4502526551594     IErMin= 3 ErrMin= 8.67D-04
 ErrMax= 5.42D-03 EMaxC= 1.00D-01 BMatC= 9.92D-04 BMatP= 2.53D-05
 IDIUse=3 WtCom= 1.20D-01 WtEn= 8.80D-01
 Rare condition: small coef for last iteration:  0.000D+00
 Coeff-Com: -0.410D-02-0.241D+00 0.145D+01-0.210D+00
 Coeff-En:   0.000D+00 0.000D+00 0.000D+00 0.100D+01
 Coeff:     -0.410D-02-0.241D+00 0.145D+01-0.210D+00
 Sum_Occ: Avg-Min  1.00192D-01 Max-Avg  3.16067D-01 Dif  4.16259D-01 (eV)
 Alpha HOCO:  -0.313358 LUCO:  13.421053 indirect gap:  13.734410 direct gap:  13.734410 (eV)
 RMSDP=1.02D-04 MaxDP=5.14D-03 DE= 1.76D-03 OVMax= 0.00D+00

 Cycle   5  Pass 1  IDiag  1:
 RMSU=  1.17D-07    CP:  9.90D-01  1.79D+00  2.22D+00  7.38D-04
 RepCel:  MaxNCR=     233 NClRep=     233 NMtPBC=     233.
 E= -59.4502957393993     Delta-E=       -0.001802383247 Rises=F Damp=F
 DIIS: error= 2.17D-04 at cycle   5 NSaved=   5.
 NSaved= 5 IEnMin= 5 EnMin= -59.4502957393993     IErMin= 5 ErrMin= 2.17D-04
 ErrMax= 2.17D-04 EMaxC= 1.00D-01 BMatC= 1.58D-06 BMatP= 2.53D-05
 IDIUse=3 WtCom= 9.98D-01 WtEn= 2.17D-03
 Coeff-Com: -0.141D-04 0.184D-01 0.220D+00-0.752D-02 0.769D+00
 Coeff-En:   0.000D+00 0.000D+00 0.000D+00 0.000D+00 0.100D+01
 Coeff:     -0.141D-04 0.184D-01 0.220D+00-0.751D-02 0.769D+00
 Sum_Occ: Avg-Min  1.00626D-01 Max-Avg  3.17550D-01 Dif  4.18177D-01 (eV)
 Alpha HOCO:  -0.280162 LUCO:  13.427964 indirect gap:  13.708126 direct gap:  13.708126 (eV)
 RMSDP=4.22D-06 MaxDP=2.10D-04 DE=-1.80D-03 OVMax= 0.00D+00

 Cycle   6  Pass 1  IDiag  1:
 RMSU=  3.76D-09    CP:  9.90D-01  1.81D+00  1.96D+00  5.16D-04  7.32D-01
 RepCel:  MaxNCR=     233 NClRep=     233 NMtPBC=     233.
 E= -59.4502985741542     Delta-E=       -0.000002834755 Rises=F Damp=F
 DIIS: error= 1.72D-05 at cycle   6 NSaved=   6.
 NSaved= 6 IEnMin= 6 EnMin= -59.4502985741542     IErMin= 6 ErrMin= 1.72D-05
 ErrMax= 1.72D-05 EMaxC= 1.00D-01 BMatC= 9.96D-09 BMatP= 1.58D-06
 IDIUse=1 WtCom= 1.00D+00 WtEn= 0.00D+00
 Coeff-Com:  0.190D-06 0.620D-02 0.453D-01-0.179D-02 0.220D+00 0.730D+00
 Coeff:      0.190D-06 0.620D-02 0.453D-01-0.179D-02 0.220D+00 0.730D+00
 Sum_Occ: Avg-Min  1.00605D-01 Max-Avg  3.17476D-01 Dif  4.18081D-01 (eV)
 Alpha HOCO:  -0.281780 LUCO:  13.427646 indirect gap:  13.709426 direct gap:  13.709426 (eV)
 RMSDP=2.07D-07 MaxDP=1.03D-05 DE=-2.83D-06 OVMax= 0.00D+00

 Cycle   7  Pass 1  IDiag  1:
 RMSU=  1.11D-11    CP:  9.90D-01  1.81D+00  1.98D+00  5.26D-04  7.45D-01
                    CP:  9.75D-01
 RepCel:  MaxNCR=     233 NClRep=     233 NMtPBC=     233.
 E= -59.4502985901642     Delta-E=       -0.000000016010 Rises=F Damp=F
 DIIS: error= 5.77D-06 at cycle   7 NSaved=   7.
 NSaved= 7 IEnMin= 7 EnMin= -59.4502985901642     IErMin= 7 ErrMin= 5.77D-06
 ErrMax= 5.77D-06 EMaxC= 1.00D-01 BMatC= 1.12D-09 BMatP= 9.96D-09
 IDIUse=1 WtCom= 1.00D+00 WtEn= 0.00D+00
 Large coefficients: NSaved=  7 BigCof=    0.00 CofMax=   10.00 Det=-1.08D-23
 Inversion failed.  Reducing to  6 matrices.
 Large coefficients: NSaved=  6 BigCof=    0.00 CofMax=   10.00 Det=-4.89D-21
 Inversion failed.  Reducing to  5 matrices.
 Coeff-Com: -0.518D-03 0.171D-04-0.730D-03-0.488D+00 0.149D+01
 Coeff:     -0.518D-03 0.171D-04-0.730D-03-0.488D+00 0.149D+01
 Sum_Occ: Avg-Min  1.00594D-01 Max-Avg  3.17439D-01 Dif  4.18033D-01 (eV)
 Alpha HOCO:  -0.282597 LUCO:  13.427486 indirect gap:  13.710083 direct gap:  13.710083 (eV)
 RMSDP=1.04D-07 MaxDP=5.19D-06 DE=-1.60D-08 OVMax= 0.00D+00

 Cycle   8  Pass 1  IDiag  1:
 RMSU=  8.53D-14    CP:  9.90D-01  1.81D+00  1.98D+00  5.31D-04  7.51D-01
                    CP:  9.62D-01  1.49D+00
 RepCel:  MaxNCR=     233 NClRep=     233 NMtPBC=     233.
 E= -59.4502985921937     Delta-E=       -0.000000002030 Rises=F Damp=F
 DIIS: error= 1.87D-11 at cycle   8 NSaved=   6.
 NSaved= 6 IEnMin= 6 EnMin= -59.4502985921937     IErMin= 6 ErrMin= 1.87D-11
 ErrMax= 1.87D-11 EMaxC= 1.00D-01 BMatC= 1.16D-20 BMatP= 1.12D-09
 IDIUse=1 WtCom= 1.00D+00 WtEn= 0.00D+00
 Large coefficients: NSaved=  6 BigCof=    0.00 CofMax=   10.00 Det=-4.62D-24
 Inversion failed.  Reducing to  5 matrices.
 Coeff-Com:  0.506D-07-0.267D-05 0.474D-03-0.152D-02 0.100D+01
 Coeff:      0.506D-07-0.267D-05 0.474D-03-0.152D-02 0.100D+01
 Sum_Occ: Avg-Min  1.00594D-01 Max-Avg  3.17439D-01 Dif  4.18033D-01 (eV)
 Alpha HOCO:  -0.282597 LUCO:  13.427486 indirect gap:  13.710083 direct gap:  13.710083 (eV)
 RMSDP=3.75D-13 MaxDP=1.90D-11 DE=-2.03D-09 OVMax= 0.00D+00

 SCF Done:  E(RS-VWN) =  -59.4502985922     A.U. after    8 cycles
             Convg  =    0.3751D-12             -V/T =  3.2128
             S**2   =   0.0000
 KE= 2.686663853063D+01 PE= 1.563991184190D+01 EE=-1.019568489647D+02
   16 alpha orbitals occupied out of   32 functions.
 HOCO           at k-point     0 kxyz=     0     0     0  -0.278442 eV
 LUCO           at k-point     0 kxyz=     0     0     0  13.325914 eV
 Indirect gap                                             13.604356 eV
 Max direct gap at k-point     1 kxyz=     8     8     8  16.464132 eV
 Min direct gap at k-point     0 kxyz=     0     0     0  13.604356 eV
 Leave Link  502 at Mon Nov 10 10:40:31 2003, MaxMem=   83886080 cpu:     708.6
 (Enter /mf/frisch/g03/l601.exe)
 Copying SCF densities to generalized density rwf, ISCF=0 IROHF=0.

 **********************************************************************

            Population analysis using the SCF density.

 **********************************************************************

 Alpha  occ. eigenvalues --   -0.48704  -0.46515  -0.46515  -0.46515  -0.05740
 Alpha  occ. eigenvalues --   -0.05740  -0.05740  -0.02876  -0.02876  -0.02876
 Alpha  occ. eigenvalues --   -0.02876  -0.02876  -0.02876  -0.01023  -0.01023
 Alpha  occ. eigenvalues --   -0.01023
 Alpha virt. eigenvalues --    0.48972   0.51311   0.51311   0.51311   1.15600
 Alpha virt. eigenvalues --    1.15600   1.15600   1.23148   1.23148   1.23148
 Alpha virt. eigenvalues --    1.23148   1.23148   1.23148   1.27539   1.27539
 Alpha virt. eigenvalues --    1.27539
          Condensed to atoms (all electrons):
              1          2          3          4          5          6
     1  Na   0.070405   0.044238   0.044238   0.000417   0.044238   0.000417
     2  Cl   0.044238   7.666661  -0.001247   0.044238  -0.001247   0.044238
     3  Cl   0.044238  -0.001247   7.666661   0.044238  -0.001247  -0.000002
     4  Na   0.000417   0.044238   0.044238   0.070405  -0.000002   0.000417
     5  Cl   0.044238  -0.001247  -0.001247  -0.000002   7.666661   0.044238
     6  Na   0.000417   0.044238  -0.000002   0.000417   0.044238   0.070405
     7  Na   0.000417  -0.000002   0.044238   0.000417   0.044238   0.000417
     8  Cl  -0.000002  -0.001247  -0.001247   0.044238  -0.001247   0.044238
              7          8
     1  Na   0.000417  -0.000002
     2  Cl  -0.000002  -0.001247
     3  Cl   0.044238  -0.001247
     4  Na   0.000417   0.044238
     5  Cl   0.044238  -0.001247
     6  Na   0.000417   0.044238
     7  Na   0.070405   0.044238
     8  Cl   0.044238   7.666661
 Mulliken atomic charges:
              1
     1  Na   0.795633
     2  Cl  -0.795633
     3  Cl  -0.795633
     4  Na   0.795633
     5  Cl  -0.795633
     6  Na   0.795633
     7  Na   0.795633
     8  Cl  -0.795633
 Sum of Mulliken charges=   0.00000
 Atomic charges with hydrogens summed into heavy atoms:
              1
     1  Na   0.795633
     2  Cl  -0.795633
     3  Cl  -0.795633
     4  Na   0.795633
     5  Cl  -0.795633
     6  Na   0.795633
     7  Na   0.795633
     8  Cl  -0.795633
 Sum of Mulliken charges=   0.00000
 Charge=     0.0000 electrons
 Dipole moment (field-independent basis, Debye):
    X=     0.0000    Y=     0.0000    Z=     0.0000  Tot=     0.0000
 Leave Link  601 at Mon Nov 10 10:40:31 2003, MaxMem=   83886080 cpu:       0.1
 (Enter /mf/frisch/g03/l701.exe)
 Compute integral first derivatives.
 ... and contract with generalized density number  0.
   1 Symmetry operations used in ECPInt.
 ECPInt:  NShTT=      36 NPrTT=     324 LenC2=    1497 LenP2D=    5256.
 LDataN:  DoStor=F MaxTD1= 4 Len=   56
 LDataN:  DoStor=T MaxTD1= 4 Len=   56
 Leave Link  701 at Mon Nov 10 10:42:10 2003, MaxMem=   83886080 cpu:      98.4
 (Enter /mf/frisch/g03/l702.exe)
 L702 exits ... SP integral derivatives will be done elsewhere.
 Leave Link  702 at Mon Nov 10 10:42:10 2003, MaxMem=   83886080 cpu:       0.0
 (Enter /mf/frisch/g03/l703.exe)
 Compute integral first derivatives, UseDBF=F.
 Integral derivatives from FoFDir, PRISM(SPDF).
 Calling FoFCou, ICntrl=  2527 FMM=T ISym2X=0 I1Cent= 0 ISCF1= 0.
 FoFCou: FMM=T IPFlag=           0 FMFlag=      990000 FMFlg1=        4097
 NFxFlg=           0 DoJE=F BraDBF=F KetDBF=F FulRan=T.
 Symmetry not used in FoFCou.
 FMM levels:   3  Number of levels for PrismC:   1
 RepCel:  MaxNCR=     233 NClRep=     233 NMtPBC=     233.
 Leave Link  703 at Mon Nov 10 10:46:22 2003, MaxMem=   83886080 cpu:     250.8
 (Enter /mf/frisch/g03/l716.exe)
 Dipole        = 0.00000000D+00 0.00000000D+00 0.00000000D+00
 -------------------------------------------------------------------
 Center     Atomic                   Forces (Hartrees/Bohr)
 Number     Number              X              Y              Z
 -------------------------------------------------------------------
    1         11           0.000000000    0.000000000    0.000000000
    2         17           0.000000000    0.000000000    0.000000000
    3         17           0.000000000    0.000000000    0.000000000
    4         11           0.000000000    0.000000000    0.000000000
    5         17           0.000000000    0.000000000    0.000000000
    6         11           0.000000000    0.000000000    0.000000000
    7         11           0.000000000    0.000000000    0.000000000
    8         17           0.000000000    0.000000000    0.000000000
              -2          -0.049345007    0.000000000    0.000000000
              -2           0.000000000   -0.049345007    0.000000000
              -2           0.000000000    0.000000000   -0.049345007
 -------------------------------------------------------------------
 Cartesian Forces:  Max     0.049345007 RMS     0.014878079
 Leave Link  716 at Mon Nov 10 10:46:22 2003, MaxMem=   83886080 cpu:       0.0
 (Enter /mf/frisch/g03/l103.exe)

 GradGradGradGradGradGradGradGradGradGradGradGradGradGradGradGradGradGrad
 Berny optimization.
 Internal  Forces:  Max     0.012336252 RMS     0.005036254
 Search for a local minimum.
 Step number   1 out of a maximum of 100
 All quantities printed in internal units (Hartrees-Bohrs-Radians)
 Second derivative matrix not updated -- first step.
     Eigenvalues ---    0.05136   0.05136   0.05136   0.05136   0.05136
     Eigenvalues ---    0.05136   0.08075   0.08306   0.08306   0.08306
     Eigenvalues ---    0.08321   0.08632   0.10603   0.11180   0.11461
     Eigenvalues ---    0.25000   0.25000   0.25000   0.25000   0.25000
     Eigenvalues ---    0.25000   0.25000   0.25000   0.25000   0.25000
     Eigenvalues ---    0.25000   0.250001000.000001000.000001000.00000
     Eigenvalues --- 1000.000001000.000001000.000001000.000001000.00000
     Eigenvalues --- 1000.000001000.000001000.000001000.000001000.00000
     Eigenvalues --- 1000.000001000.000001000.000001000.000001000.00000
     Eigenvalues --- 1000.000001000.000001000.000001000.000001000.00000
     Eigenvalues --- 1000.000001000.000001000.000001000.000001000.00000
     Eigenvalues --- 1000.000001000.000001000.000001000.000001000.00000
     Eigenvalues --- 1000.000001000.000001000.000001000.000001000.00000
     Eigenvalues --- 1000.000001000.000001000.000001000.000001000.00000
     Eigenvalues --- 1000.000001000.000001000.000001000.000001000.00000
     Eigenvalues --- 1000.000001000.000001000.000001000.000001000.00000
     Eigenvalues --- 1000.000001000.000001000.000001000.000001000.00000
     Eigenvalues --- 1000.000001000.000001000.000001000.000001000.00000
     Eigenvalues --- 1000.000001000.000001000.000001000.000001000.00000
     Eigenvalues --- 1000.000001000.000001000.000001000.000001000.00000
     Eigenvalues --- 1000.000001000.000001000.000001000.000001000.00000
     Eigenvalues --- 1000.000001000.000001000.000001000.000001000.00000
     Eigenvalues --- 1000.000001000.000001000.000001000.000001000.00000
     Eigenvalues --- 1000.000001000.000001000.000001000.000001000.00000
     Eigenvalues --- 1000.000001000.000001000.000001000.000001000.00000
     Eigenvalues --- 1000.000001000.000001000.000001000.000001000.00000
     Eigenvalues --- 1000.000001000.000001000.000001000.000001000.00000
     Eigenvalues --- 1000.000001000.000001000.000001000.000001000.00000
     Eigenvalues --- 1000.000001000.000001000.000001000.00000
 RFO step:  Lambda=-3.99843668D-02.
 Linear search not attempted -- first point.
 Iteration  1 RMS(Cart)=  0.04774752 RMS(Int)=  0.00000000
 Iteration  2 RMS(Cart)=  0.00000000 RMS(Int)=  0.00000000
 Variable       Old X    -DE/DX   Delta X   Delta X   Delta X     New X
                                 (Linear)    (Quad)   (Total)
    R1        5.30000  -0.01234   0.00000  -0.13505  -0.13505   5.16495
    R2        5.30000  -0.01234   0.00000  -0.13505  -0.13505   5.16495
    R3        5.30000  -0.01234   0.00000  -0.13505  -0.13505   5.16495
    R4        5.30000  -0.01234   0.00000  -0.13505  -0.13505   5.16495
    R5        5.30000  -0.01234   0.00000  -0.13505  -0.13505   5.16495
    R6        5.30000  -0.01234   0.00000  -0.13505  -0.13505   5.16495
    R7        5.30000  -0.01234   0.00000  -0.13505  -0.13505   5.16495
    R8        5.30000  -0.01234   0.00000  -0.13505  -0.13505   5.16495
    R9        5.30000  -0.01234   0.00000  -0.13505  -0.13505   5.16495
   R10        5.30000  -0.01234   0.00000  -0.13505  -0.13505   5.16495
   R11        5.30000  -0.01234   0.00000  -0.13505  -0.13505   5.16495
   R12        5.30000  -0.01234   0.00000  -0.13505  -0.13505   5.16495
   R13        5.30000  -0.01234   0.00000  -0.13505  -0.13505   5.16495
   R14        5.30000  -0.01234   0.00000  -0.13505  -0.13505   5.16495
   R15        5.30000  -0.01234   0.00000  -0.13505  -0.13505   5.16495
   R16        5.30000  -0.01234   0.00000  -0.13505  -0.13505   5.16495
   R17        5.30000  -0.01234   0.00000  -0.13505  -0.13505   5.16495
   R18        5.30000  -0.01234   0.00000  -0.13505  -0.13505   5.16495
   R19        5.30000  -0.01234   0.00000  -0.13505  -0.13505   5.16495
   R20        5.30000  -0.01234   0.00000  -0.13505  -0.13505   5.16495
   R21        5.30000  -0.01234   0.00000  -0.13505  -0.13505   5.16495
   R22        5.30000  -0.01234   0.00000  -0.13505  -0.13505   5.16495
   R23        5.30000  -0.01234   0.00000  -0.13505  -0.13505   5.16495
   R24        5.30000  -0.01234   0.00000  -0.13505  -0.13505   5.16495
    A1        1.57080   0.00000   0.00000   0.00000   0.00000   1.57080
    A2        1.57080   0.00000   0.00000   0.00000   0.00000   1.57080
    A3        1.57080   0.00000   0.00000   0.00000   0.00000   1.57080
    A4        1.57080   0.00000   0.00000   0.00000   0.00000   1.57080
    A5        1.57080   0.00000   0.00000   0.00000   0.00000   1.57080
    A6        1.57080   0.00000   0.00000   0.00000   0.00000   1.57080
    A7        1.57080   0.00000   0.00000   0.00000   0.00000   1.57080
    A8        1.57080   0.00000   0.00000   0.00000   0.00000   1.57080
    A9        1.57080   0.00000   0.00000   0.00000   0.00000   1.57080
   A10        1.57080   0.00000   0.00000   0.00000   0.00000   1.57080
   A11        1.57080   0.00000   0.00000   0.00000   0.00000   1.57080
   A12        1.57080   0.00000   0.00000   0.00000   0.00000   1.57080
   A13        1.57080   0.00000   0.00000   0.00000   0.00000   1.57080
   A14        1.57080   0.00000   0.00000   0.00000   0.00000   1.57080
   A15        1.57080   0.00000   0.00000   0.00000   0.00000   1.57080
   A16        1.57080   0.00000   0.00000   0.00000   0.00000   1.57080
   A17        1.57080   0.00000   0.00000   0.00000   0.00000   1.57080
   A18        1.57080   0.00000   0.00000   0.00000   0.00000   1.57080
   A19        1.57080   0.00000   0.00000   0.00000   0.00000   1.57080
   A20        1.57080   0.00000   0.00000   0.00000   0.00000   1.57080
   A21        1.57080   0.00000   0.00000   0.00000   0.00000   1.57080
   A22        1.57080   0.00000   0.00000   0.00000   0.00000   1.57080
   A23        1.57080   0.00000   0.00000   0.00000   0.00000   1.57080
   A24        1.57080   0.00000   0.00000   0.00000   0.00000   1.57080
   A25        1.57080   0.00000   0.00000   0.00000   0.00000   1.57080
   A26        1.57080   0.00000   0.00000   0.00000   0.00000   1.57080
   A27        1.57080   0.00000   0.00000   0.00000   0.00000   1.57080
   A28        1.57080   0.00000   0.00000   0.00000   0.00000   1.57080
   A29        1.57080   0.00000   0.00000   0.00000   0.00000   1.57080
   A30        1.57080   0.00000   0.00000   0.00000   0.00000   1.57080
   A31        1.57080   0.00000   0.00000   0.00000   0.00000   1.57080
   A32        1.57080   0.00000   0.00000   0.00000   0.00000   1.57080
   A33        1.57080   0.00000   0.00000   0.00000   0.00000   1.57080
   A34        1.57080   0.00000   0.00000   0.00000   0.00000   1.57080
   A35        1.57080   0.00000   0.00000   0.00000   0.00000   1.57080
   A36        1.57080   0.00000   0.00000   0.00000   0.00000   1.57080
   A37        1.57080   0.00000   0.00000   0.00000   0.00000   1.57080
   A38        1.57080   0.00000   0.00000   0.00000   0.00000   1.57080
   A39        1.57080   0.00000   0.00000   0.00000   0.00000   1.57080
   A40        1.57080   0.00000   0.00000   0.00000   0.00000   1.57080
   A41        1.57080   0.00000   0.00000   0.00000   0.00000   1.57080
   A42        1.57080   0.00000   0.00000   0.00000   0.00000   1.57080
   A43        1.57080   0.00000   0.00000   0.00000   0.00000   1.57080
   A44        1.57080   0.00000   0.00000   0.00000   0.00000   1.57080
   A45        1.57080   0.00000   0.00000   0.00000   0.00000   1.57080
   A46        1.57080   0.00000   0.00000   0.00000   0.00000   1.57080
   A47        1.57080   0.00000   0.00000   0.00000   0.00000   1.57080
   A48        1.57080   0.00000   0.00000   0.00000   0.00000   1.57080
   A49        1.57080   0.00000   0.00000   0.00000   0.00000   1.57080
   A50        1.57080   0.00000   0.00000   0.00000   0.00000   1.57080
   A51        1.57080   0.00000   0.00000   0.00000   0.00000   1.57080
   A52        1.57080   0.00000   0.00000   0.00000   0.00000   1.57080
   A53        1.57080   0.00000   0.00000   0.00000   0.00000   1.57080
   A54        1.57080   0.00000   0.00000   0.00000   0.00000   1.57080
   A55        1.57080   0.00000   0.00000   0.00000   0.00000   1.57080
   A56        1.57080   0.00000   0.00000   0.00000   0.00000   1.57080
   A57        1.57080   0.00000   0.00000   0.00000   0.00000   1.57080
   A58        1.57080   0.00000   0.00000   0.00000   0.00000   1.57080
   A59        1.57080   0.00000   0.00000   0.00000   0.00000   1.57080
   A60        1.57080   0.00000   0.00000   0.00000   0.00000   1.57080
   A61        1.57080   0.00000   0.00000   0.00000   0.00000   1.57080
   A62        1.57080   0.00000   0.00000   0.00000   0.00000   1.57080
   A63        1.57080   0.00000   0.00000   0.00000   0.00000   1.57080
   A64        1.57080   0.00000   0.00000   0.00000   0.00000   1.57080
   A65        1.57080   0.00000   0.00000   0.00000   0.00000   1.57080
   A66        1.57080   0.00000   0.00000   0.00000   0.00000   1.57080
   A67        1.57080   0.00000   0.00000   0.00000   0.00000   1.57080
   A68        1.57080   0.00000   0.00000   0.00000   0.00000   1.57080
   A69        1.57080   0.00000   0.00000   0.00000   0.00000   1.57080
   A70        1.57080   0.00000   0.00000   0.00000   0.00000   1.57080
   A71        1.57080   0.00000   0.00000   0.00000   0.00000   1.57080
   A72        1.57080   0.00000   0.00000   0.00000   0.00000   1.57080
   A73        1.57080   0.00000   0.00000   0.00000   0.00000   1.57080
   A74        1.57080   0.00000   0.00000   0.00000   0.00000   1.57080
   A75        1.57080   0.00000   0.00000   0.00000   0.00000   1.57080
   A76        1.57080   0.00000   0.00000   0.00000   0.00000   1.57080
   A77        1.57080   0.00000   0.00000   0.00000   0.00000   1.57080
   A78        1.57080   0.00000   0.00000   0.00000   0.00000   1.57080
   A79        1.57080   0.00000   0.00000   0.00000   0.00000   1.57080
   A80        1.57080   0.00000   0.00000   0.00000   0.00000   1.57080
   A81        1.57080   0.00000   0.00000   0.00000   0.00000   1.57080
   A82        1.57080   0.00000   0.00000   0.00000   0.00000   1.57080
   A83        1.57080   0.00000   0.00000   0.00000   0.00000   1.57080
   A84        1.57080   0.00000   0.00000   0.00000   0.00000   1.57080
   A85        1.57080   0.00000   0.00000   0.00000   0.00000   1.57080
   A86        1.57080   0.00000   0.00000   0.00000   0.00000   1.57080
   A87        1.57080   0.00000   0.00000   0.00000   0.00000   1.57080
   A88        1.57080   0.00000   0.00000   0.00000   0.00000   1.57080
   A89        1.57080   0.00000   0.00000   0.00000   0.00000   1.57080
   A90        1.57080   0.00000   0.00000   0.00000   0.00000   1.57080
   A91        1.57080   0.00000   0.00000   0.00000   0.00000   1.57080
   A92        1.57080   0.00000   0.00000   0.00000   0.00000   1.57080
   A93        1.57080   0.00000   0.00000   0.00000   0.00000   1.57080
   A94        1.57080   0.00000   0.00000   0.00000   0.00000   1.57080
   A95        1.57080   0.00000   0.00000   0.00000   0.00000   1.57080
   A96        1.57080   0.00000   0.00000   0.00000   0.00000   1.57080
   A97        3.14159   0.00000   0.00000   0.00000   0.00000   3.14159
   A98        3.14159   0.00000   0.00000   0.00000   0.00000   3.14159
   A99        3.14159   0.00000   0.00000   0.00000   0.00000   3.14159
   A100       3.14159   0.00000   0.00000   0.00000   0.00000   3.14159
   A101       3.14159   0.00000   0.00000   0.00000   0.00000   3.14159
   A102       3.14159   0.00000   0.00000   0.00000   0.00000   3.14159
   A103       3.14159   0.00000   0.00000   0.00000   0.00000   3.14159
   A104       3.14159   0.00000   0.00000   0.00000   0.00000   3.14159
   A105       3.14159   0.00000   0.00000   0.00000   0.00000   3.14159
   A106       3.14159   0.00000   0.00000   0.00000   0.00000   3.14159
   A107       3.14159   0.00000   0.00000   0.00000   0.00000   3.14159
   A108       3.14159   0.00000   0.00000   0.00000   0.00000   3.14159
   A109       3.14159   0.00000   0.00000   0.00000   0.00000   3.14159
   A110       3.14159   0.00000   0.00000   0.00000   0.00000   3.14159
   A111       3.14159   0.00000   0.00000   0.00000   0.00000   3.14159
   A112       3.14159   0.00000   0.00000   0.00000   0.00000   3.14159
   A113       3.14159   0.00000   0.00000   0.00000   0.00000   3.14159
   A114       3.14159   0.00000   0.00000   0.00000   0.00000   3.14159
   A115       3.14159   0.00000   0.00000   0.00000   0.00000   3.14159
   A116       3.14159   0.00000   0.00000   0.00000   0.00000   3.14159
   A117       3.14159   0.00000   0.00000   0.00000   0.00000   3.14159
   A118       3.14159   0.00000   0.00000   0.00000   0.00000   3.14159
   A119       3.14159   0.00000   0.00000   0.00000   0.00000   3.14159
   A120       3.14159   0.00000   0.00000   0.00000   0.00000   3.14159
         Item               Value     Threshold  Converged?
 Maximum Force            0.012336     0.000450     NO 
 RMS     Force            0.005036     0.000300     NO 
 Maximum Displacement     0.270101     0.001800     NO 
 RMS     Displacement     0.047748     0.001200     NO 
 Predicted change in Energy=-2.874330D-02
 GradGradGradGradGradGradGradGradGradGradGradGradGradGradGradGradGradGrad

 Leave Link  103 at Mon Nov 10 10:46:23 2003, MaxMem=   83886080 cpu:       0.6
 (Enter /mf/frisch/g03/l202.exe)
                          Input orientation:                          
 ---------------------------------------------------------------------
 Center     Atomic     Atomic              Coordinates (Angstroms)
 Number     Number      Type              X           Y           Z
 ---------------------------------------------------------------------
    1         11             0       -1.366587   -1.366587   -1.366587
    2         17             0       -1.366587   -1.366587    1.366587
    3         17             0       -1.366587    1.366587   -1.366587
    4         11             0       -1.366587    1.366587    1.366587
    5         17             0        1.366587   -1.366587   -1.366587
    6         11             0        1.366587   -1.366587    1.366587
    7         11             0        1.366587    1.366587   -1.366587
    8         17             0        1.366587    1.366587    1.366587
    9         -2             0        5.466347    0.000000    0.000000
   10         -2             0        0.000000    5.466347    0.000000
   11         -2             0        0.000000    0.000000    5.466347
 ---------------------------------------------------------------------
 Lengths of translation vectors:      5.466347    5.466347    5.466347
  Angles of translation vectors:     90.000000   90.000000   90.000000
 ---------------------------------------------------------------------
                    Distance matrix (angstroms):
                    1          2          3          4          5
     1  Na   0.000000
     2  Cl   2.733174   0.000000
     3  Cl   2.733174   3.865291   0.000000
     4  Na   3.865291   2.733174   2.733174   0.000000
     5  Cl   2.733174   3.865291   3.865291   4.733996   0.000000
     6  Na   3.865291   2.733174   4.733996   3.865291   2.733174
     7  Na   3.865291   4.733996   2.733174   3.865291   2.733174
     8  Cl   4.733996   3.865291   3.865291   2.733174   3.865291
     9  TV   7.100993   7.100993   7.100993   7.100993   4.532456
    10  TV   7.100993   7.100993   4.532456   4.532456   7.100993
    11  TV   7.100993   4.532456   7.100993   4.532456   7.100993
                    6          7          8          9         10
     6  Na   0.000000
     7  Na   3.865291   0.000000
     8  Cl   2.733174   2.733174   0.000000
     9  TV   4.532456   4.532456   4.532456   0.000000
    10  TV   7.100993   4.532456   4.532456   7.730582   0.000000
    11  TV   4.532456   7.100993   4.532456   7.730582   7.730582
                   11
    11  TV   0.000000
 Symmetry turned off by external request.
 Symmetry turned off:
 Cannot cope with ghost atoms or with translation vectors.
 Stoichiometry    Cl4Na4
 Framework group  C1[X(Cl4Na4)]
 Deg. of freedom    18
 Full point group                 C1      NOp   1
 Leave Link  202 at Mon Nov 10 10:46:23 2003, MaxMem=   83886080 cpu:       0.2
 (Enter /mf/frisch/g03/l301.exe)
 Basis read from rwf:  (5D, 7F)
 Integral buffers will be    131072 words long.
 Raffenetti 2 integral format.
 Two-electron integral symmetry is turned off.
    32 basis functions,    96 primitive gaussians,    32 cartesian basis functions
    16 alpha electrons       16 beta electrons
       nuclear repulsion energy        60.4648379971 Hartrees.
 IExCor= 205 DFT=T Ex=S Corr=VWN ExCW=0 ScaHFX=  0.000000
 ScaDFX=  1.000000  1.000000  1.000000  1.000000
 IRadAn=      0 IRanWt=     -1 IRanGd=            0 ICorTp=0
 NAtoms=    8 NActive=    8 NUniq=    8 SFac= 1.00D+00 NAtFMM=   60 Big=F
 No density basis found on file   724.
 Leave Link  301 at Mon Nov 10 10:46:24 2003, MaxMem=   83886080 cpu:       0.2
 (Enter /mf/frisch/g03/l302.exe)
 PBC will use cell settings on the RW file.
 NPDir=3 NMtPBC=   233 NCelOv=   233 NCel=    5581 NClECP=   233 NCelD=    233
         NCelK=    466 NCelE2=   466 NClLst=   116 CellRange=   100.0.
 One-electron integrals computed using PRISM.
   1 Symmetry operations used in ECPInt.
 ECPInt:  NShTT=      36 NPrTT=     324 LenC2=    1641 LenP2D=    5608.
 LDataN:  DoStor=F MaxTD1= 3 Len=   28
 LDataN:  DoStor=T MaxTD1= 3 Len=   28
 NBasis=    32 RedAO= T  NBF=    32
 NBsUse=    32 1.00D-06 NBFU=    32
 Precomputing XC quadrature grid using
 IXCGrd= 2 IRadAn=           0 IRanWt=          -1 IRanGd=           0.
 RepCel:  MaxNCR=     233 NClRep=     233 NMtPBC=     233.
 NRdTot=     500 NPtTot=       64168 NUsed=       75125 NTot=       75157
 NSgBfM=   860   908   908   908.
 Leave Link  302 at Mon Nov 10 10:47:40 2003, MaxMem=   83886080 cpu:      75.6
 (Enter /mf/frisch/g03/l303.exe)
 DipDrv:  MaxL=1.
 Leave Link  303 at Mon Nov 10 10:47:40 2003, MaxMem=   83886080 cpu:       0.2
 (Enter /mf/frisch/g03/l401.exe)
 Initial guess read from the read-write file:
 Guess basis will be translated and rotated to current coordinates.
 Re-using Fock matrices on rwf for new guess.
 ReFckM: NMPBCI=   233 NMPBCO=   233 Same=T
 Generating alternative initial guess.
 Harris functional with IExCor=  205 diagonalized for initial guess.
 RepCel:  MaxNCR=     233 NClRep=     233 NMtPBC=     233.
 HarFok:  IExCor= 205 AccDes= 0.00D+00 IRadAn=         0 IDoV=1
 ScaDFX=  1.000000  1.000000  1.000000  1.000000
 Harris En= -14650.2766162777    
 Leave Link  401 at Mon Nov 10 10:48:07 2003, MaxMem=   83886080 cpu:      26.3
 (Enter /mf/frisch/g03/l502.exe)
 Closed shell SCF:
 Requested convergence on RMS density matrix=1.00D-07 within 128 cycles.
 Requested convergence on MAX density matrix=1.00D-05.
 Requested convergence on             energy=1.00D-05.
 No special actions if energy rises.
 Using DIIS extrapolation, IDIIS=  1040.
 NCelOv=   233 NClRep=   233 NMtPBC=   233 NRecip=   430 NKPnt=     256.
 Two-electron integral symmetry not used.
        75124 words used for storage of precomputed grid.
 IEnd=    976161 IEndB=    976161 NGot=  83886080 MDV=  83172608
 LenX=  83172608
 Threshold for overlap eigenvalues 1.000D-06
           Ratio       Low      Low      Low      Low      Low     High
 Min    4.374D-01    1.5D+00  1.4D+00  1.4D+00  1.4D+00  1.3D+00  6.6D-01
 Max    4.654D-01    1.5D+00  1.5D+00  1.5D+00  1.5D+00  1.4D+00  6.8D-01
 S in ortho basis: MxErrOnDiag=  0.6883D-14 MxErrOfDiag=  0.6336D-14
 Fock matrices will be formed incrementally for  20 cycles.

 Cycle   1  Pass 0  IDiag  1:
 E=   (Non-Variational)  
 Sum_Occ: Avg-Min  3.23371D-01 Max-Avg  5.39767D-01 Dif  8.63138D-01 (eV)
 Alpha HOCO: -11.524460 LUCO:  -0.051411 indirect gap:  11.473048 direct gap:  11.473048 (eV)

 Diagonalized old Fock matrix for initial guess.
 Cycle   1  Pass 1  IDiag  1:
 FoFCou: FMM=T IPFlag=           0 FMFlag=      990000 FMFlg1=        4097
 NFxFlg=           0 DoJE=T BraDBF=F KetDBF=F FulRan=T.
 Symmetry not used in FoFCou.
 FMM levels:   3  Number of levels for PrismC:   1
 RepCel:  MaxNCR=     233 NClRep=     233 NMtPBC=     233.
 E= -59.4674846607590    
 DIIS: error= 2.28D-02 at cycle   1 NSaved=   1.
 NSaved= 1 IEnMin= 1 EnMin= -59.4674846607590     IErMin= 1 ErrMin= 2.28D-02
 ErrMax= 2.28D-02 EMaxC= 1.00D-01 BMatC= 1.68D-02 BMatP= 1.68D-02
 IDIUse=3 WtCom= 7.72D-01 WtEn= 2.28D-01
 Coeff-Com:  0.100D+01
 Coeff-En:   0.100D+01
 Coeff:      0.100D+01
 Sum_Occ: Avg-Min  1.23079D-01 Max-Avg  3.92098D-01 Dif  5.15177D-01 (eV)
 Alpha HOCO:  -0.138482 LUCO:  13.835956 indirect gap:  13.974439 direct gap:  13.974439 (eV)
 GapD=    2.000 DampG=2.000 DampE=0.250 DampFc=0.5000 IDamp=-1.
 Damping current iteration by 5.00D-01
 RMSDP=3.08D-04 MaxDP=1.61D-02              OVMax= 0.00D+00

 Cycle   2  Pass 1  IDiag  1:
 RMSU=  1.46D-04    CP:  9.94D-01
 RepCel:  MaxNCR=     233 NClRep=     233 NMtPBC=     233.
 E= -59.4774547468830     Delta-E=       -0.009970086124 Rises=F Damp=T
 DIIS: error= 1.01D-03 at cycle   2 NSaved=   2.
 NSaved= 2 IEnMin= 2 EnMin= -59.4774547468830     IErMin= 2 ErrMin= 1.01D-03
 ErrMax= 1.01D-03 EMaxC= 1.00D-01 BMatC= 3.25D-05 BMatP= 1.68D-02
 IDIUse=3 WtCom= 9.90D-01 WtEn= 1.01D-02
 Coeff-Com:  0.421D-01 0.958D+00
 Coeff-En:   0.000D+00 0.100D+01
 Coeff:      0.416D-01 0.958D+00
 Sum_Occ: Avg-Min  1.21425D-01 Max-Avg  3.86124D-01 Dif  5.07549D-01 (eV)
 Alpha HOCO:  -0.271856 LUCO:  13.806136 indirect gap:  14.077992 direct gap:  14.077992 (eV)
 RMSDP=1.38D-04 MaxDP=7.51D-03 DE=-9.97D-03 OVMax= 0.00D+00

 Cycle   3  Pass 1  IDiag  1:
 RMSU=  8.09D-06    CP:  9.88D-01  1.89D+00
 RepCel:  MaxNCR=     233 NClRep=     233 NMtPBC=     233.
 E= -59.4865702616438     Delta-E=       -0.009115514761 Rises=F Damp=F
 DIIS: error= 9.79D-04 at cycle   3 NSaved=   3.
 NSaved= 3 IEnMin= 3 EnMin= -59.4865702616438     IErMin= 3 ErrMin= 9.79D-04
 ErrMax= 9.79D-04 EMaxC= 1.00D-01 BMatC= 3.02D-05 BMatP= 3.25D-05
 IDIUse=3 WtCom= 9.90D-01 WtEn= 9.79D-03
 Large coefficients: NSaved=  3 BigCof=   10.22 CofMax=   10.00 Det=-2.55D-10
 Inversion failed.  Reducing to  2 matrices.
 Large coefficients: NSaved=  2 BigCof=   28.17 CofMax=   10.00 Det=-4.04D-08
 Coeff-Com: -0.272D+02 0.282D+02
 Coeff-En:   0.000D+00 0.100D+01
 Coeff:     -0.269D+02 0.279D+02
 Sum_Occ: Avg-Min  1.11163D-01 Max-Avg  2.72215D-01 Dif  3.83378D-01 (eV)
 Alpha HOCO:  -3.643321 LUCO:  13.573569 indirect gap:  17.216890 direct gap:  17.216890 (eV)
 RMSDP=4.46D-04 MaxDP=2.26D-02 DE=-9.12D-03 OVMax= 0.00D+00

 Cycle   4  Pass 1  IDiag  1:
 RMSU=  1.76D-04    CP:  1.00D+00 -7.43D-01  3.00D+00
 RepCel:  MaxNCR=     233 NClRep=     233 NMtPBC=     233.
 E= -59.4515473373889     Delta-E=        0.035022924255 Rises=F Damp=F
 DIIS: error= 2.59D-02 at cycle   4 NSaved=   3.
 NSaved= 3 IEnMin= 2 EnMin= -59.4865702616438     IErMin= 2 ErrMin= 9.79D-04
 ErrMax= 2.59D-02 EMaxC= 1.00D-01 BMatC= 2.08D-02 BMatP= 3.02D-05
 IDIUse=2 WtCom= 0.00D+00 WtEn= 1.00D+00
 Rare condition: small coef for last iteration:  0.000D+00
 Coeff-En:   0.000D+00 0.000D+00 0.100D+01
 Coeff:      0.000D+00 0.000D+00 0.100D+01
 Sum_Occ: Avg-Min  1.23558D-01 Max-Avg  3.94234D-01 Dif  5.17792D-01 (eV)
 Alpha HOCO:   0.009925 LUCO:  13.939849 indirect gap:  13.929924 direct gap:  13.929924 (eV)
 RMSDP=4.78D-04 MaxDP=2.43D-02 DE= 3.50D-02 OVMax= 0.00D+00

 Cycle   5  Pass 1  IDiag  1:
 RMSU=  1.50D-07    CP:  9.87D-01  2.08D+00 -6.06D-01  7.44D-05
 RepCel:  MaxNCR=     233 NClRep=     233 NMtPBC=     233.
 E= -59.4861698933753     Delta-E=       -0.034622555986 Rises=F Damp=F
 DIIS: error= 2.95D-03 at cycle   5 NSaved=   4.
 NSaved= 4 IEnMin= 2 EnMin= -59.4865702616438     IErMin= 2 ErrMin= 9.79D-04
 ErrMax= 2.95D-03 EMaxC= 1.00D-01 BMatC= 2.76D-04 BMatP= 3.02D-05
 IDIUse=3 WtCom= 1.55D-01 WtEn= 8.45D-01
 Coeff-Com:  0.215D+01-0.686D+00 0.486D-02-0.467D+00
 Coeff-En:   0.000D+00 0.000D+00 0.000D+00 0.100D+01
 Coeff:      0.334D+00-0.107D+00 0.755D-03 0.772D+00
 Sum_Occ: Avg-Min  1.19869D-01 Max-Avg  3.80591D-01 Dif  5.00460D-01 (eV)
 Alpha HOCO:  -0.382533 LUCO:  13.792796 indirect gap:  14.175329 direct gap:  14.175329 (eV)
 RMSDP=4.76D-05 MaxDP=2.53D-03 DE=-3.46D-02 OVMax= 0.00D+00

 Cycle   6  Pass 1  IDiag  1:
 RMSU=  4.04D-08    CP:  9.89D-01  1.80D+00  1.89D+00  5.57D-05  4.35D-01
 RepCel:  MaxNCR=     233 NClRep=     233 NMtPBC=     233.
 E= -59.4866219630756     Delta-E=       -0.000452069700 Rises=F Damp=F
 DIIS: error= 2.78D-05 at cycle   6 NSaved=   5.
 NSaved= 5 IEnMin= 5 EnMin= -59.4866219630756     IErMin= 5 ErrMin= 2.78D-05
 ErrMax= 2.78D-05 EMaxC= 1.00D-01 BMatC= 2.38D-08 BMatP= 3.02D-05
 IDIUse=1 WtCom= 1.00D+00 WtEn= 0.00D+00
 Coeff-Com: -0.895D+00 0.273D+00-0.286D-03 0.201D+00 0.142D+01
 Coeff:     -0.895D+00 0.273D+00-0.286D-03 0.201D+00 0.142D+01
 Sum_Occ: Avg-Min  1.18249D-01 Max-Avg  3.74869D-01 Dif  4.93118D-01 (eV)
 Alpha HOCO:  -0.489291 LUCO:  13.789294 indirect gap:  14.278585 direct gap:  14.278585 (eV)
 RMSDP=1.64D-05 MaxDP=8.66D-04 DE=-4.52D-04 OVMax= 0.00D+00

 Cycle   7  Pass 1  IDiag  1:
 RMSU=  1.21D-08    CP:  9.89D-01  1.71D+00  2.82D+00  1.62D-04  1.17D+00
                    CP:  3.00D+00
 RepCel:  MaxNCR=     233 NClRep=     233 NMtPBC=     233.
 E= -59.4865737298831     Delta-E=        0.000048233192 Rises=F Damp=F
 DIIS: error= 9.47D-04 at cycle   7 NSaved=   6.
 NSaved= 6 IEnMin= 5 EnMin= -59.4866219630756     IErMin= 5 ErrMin= 2.78D-05
 ErrMax= 9.47D-04 EMaxC= 1.00D-01 BMatC= 2.82D-05 BMatP= 2.38D-08
 IDIUse=1 WtCom= 1.00D+00 WtEn= 0.00D+00
 Coeff-Com: -0.113D+01 0.173D+00 0.221D-03 0.255D+00 0.189D+01-0.190D+00
 Coeff:     -0.113D+01 0.173D+00 0.221D-03 0.255D+00 0.189D+01-0.190D+00
 Sum_Occ: Avg-Min  1.17846D-01 Max-Avg  3.73445D-01 Dif  4.91291D-01 (eV)
 Alpha HOCO:  -0.518005 LUCO:  13.786905 indirect gap:  14.304910 direct gap:  14.304910 (eV)
 RMSDP=4.20D-06 MaxDP=2.21D-04 DE= 4.82D-05 OVMax= 0.00D+00

 Cycle   8  Pass 1  IDiag  1:
 RMSU=  5.04D-09    CP:  9.90D-01  1.68D+00  3.00D+00  2.58D-03  1.15D+00
                    CP:  2.89D+00  4.45D-01
 RepCel:  MaxNCR=     233 NClRep=     233 NMtPBC=     233.
 E= -59.4865448163259     Delta-E=        0.000028913557 Rises=F Damp=F
 DIIS: error= 1.20D-03 at cycle   8 NSaved=   7.
 NSaved= 7 IEnMin= 5 EnMin= -59.4866219630756     IErMin= 5 ErrMin= 2.78D-05
 ErrMax= 1.20D-03 EMaxC= 1.00D-01 BMatC= 4.51D-05 BMatP= 2.38D-08
 IDIUse=1 WtCom= 1.00D+00 WtEn= 0.00D+00
 Large coefficients: NSaved=  7 BigCof=    0.00 CofMax=   10.00 Det=-5.08D-21
 Inversion failed.  Reducing to  6 matrices.
 Large coefficients: NSaved=  6 BigCof=    0.00 CofMax=   10.00 Det=-7.31D-19
 Inversion failed.  Reducing to  5 matrices.
 Coeff-Com:  0.319D+00-0.227D-02-0.147D+00 0.276D+01-0.193D+01
 Coeff:      0.319D+00-0.227D-02-0.147D+00 0.276D+01-0.193D+01
 Sum_Occ: Avg-Min  1.19791D-01 Max-Avg  3.80330D-01 Dif  5.00122D-01 (eV)
 Alpha HOCO:  -0.381269 LUCO:  13.798382 indirect gap:  14.179651 direct gap:  14.179651 (eV)
 RMSDP=2.01D-05 MaxDP=1.06D-03 DE= 2.89D-05 OVMax= 0.00D+00

 Cycle   9  Pass 1  IDiag  1:
 RMSU=  5.58D-10    CP:  9.89D-01  1.80D+00  1.93D+00  5.98D-05  4.77D-01
                    CP:  1.04D+00  1.30D-01  2.40D-01
 RepCel:  MaxNCR=     233 NClRep=     233 NMtPBC=     233.
 E= -59.4866220096993     Delta-E=       -0.000077193373 Rises=F Damp=F
 DIIS: error= 4.68D-09 at cycle   9 NSaved=   6.
 NSaved= 6 IEnMin= 6 EnMin= -59.4866220096993     IErMin= 6 ErrMin= 4.68D-09
 ErrMax= 4.68D-09 EMaxC= 1.00D-01 BMatC= 6.84D-16 BMatP= 2.38D-08
 IDIUse=1 WtCom= 1.00D+00 WtEn= 0.00D+00
 Large coefficients: NSaved=  6 BigCof=    0.00 CofMax=   10.00 Det=-2.68D-19
 Inversion failed.  Reducing to  5 matrices.
 Coeff-Com:  0.113D-02-0.451D-03 0.102D-01-0.717D-02 0.996D+00
 Coeff:      0.113D-02-0.451D-03 0.102D-01-0.717D-02 0.996D+00
 Sum_Occ: Avg-Min  1.19791D-01 Max-Avg  3.80330D-01 Dif  5.00122D-01 (eV)
 Alpha HOCO:  -0.381270 LUCO:  13.798382 indirect gap:  14.179652 direct gap:  14.179652 (eV)
 RMSDP=8.81D-11 MaxDP=4.62D-09 DE=-7.72D-05 OVMax= 0.00D+00

 Cycle  10  Pass 1  IDiag  1:
 RMSU=  1.34D-13    CP:  9.89D-01  1.80D+00  1.93D+00  5.98D-05  4.77D-01
                    CP:  1.04D+00  1.30D-01  2.40D-01  1.00D+00
 RepCel:  MaxNCR=     233 NClRep=     233 NMtPBC=     233.
 E= -59.4866220097002     Delta-E=       -0.000000000001 Rises=F Damp=F
 DIIS: error= 2.31D-11 at cycle  10 NSaved=   6.
 NSaved= 6 IEnMin= 6 EnMin= -59.4866220097002     IErMin= 6 ErrMin= 2.31D-11
 ErrMax= 2.31D-11 EMaxC= 1.00D-01 BMatC= 1.66D-20 BMatP= 6.84D-16
 IDIUse=1 WtCom= 1.00D+00 WtEn= 0.00D+00
 Large coefficients: NSaved=  6 BigCof=    0.00 CofMax=   10.00 Det=-6.51D-23
 Inversion failed.  Reducing to  5 matrices.
 Coeff-Com: -0.651D-08 0.285D-07-0.217D-08-0.419D-02 0.100D+01
 Coeff:     -0.651D-08 0.285D-07-0.217D-08-0.419D-02 0.100D+01
 Sum_Occ: Avg-Min  1.19791D-01 Max-Avg  3.80330D-01 Dif  5.00122D-01 (eV)
 Alpha HOCO:  -0.381270 LUCO:  13.798382 indirect gap:  14.179652 direct gap:  14.179652 (eV)
 RMSDP=4.27D-13 MaxDP=2.24D-11 DE=-8.53D-13 OVMax= 0.00D+00

 SCF Done:  E(RS-VWN) =  -59.4866220097     A.U. after   10 cycles
             Convg  =    0.4272D-12             -V/T =  3.2232
             S**2   =   0.0000
 KE= 2.675779889939D+01 PE= 1.564524506491D+01 EE=-1.018896659740D+02
   16 alpha orbitals occupied out of   32 functions.
 HOCO           at k-point     0 kxyz=     0     0     0  -0.375336 eV
 LUCO           at k-point     0 kxyz=     0     0     0  13.682710 eV
 Indirect gap                                             14.058045 eV
 Max direct gap at k-point    57 kxyz=     8     1     8  17.368242 eV
 Min direct gap at k-point     0 kxyz=     0     0     0  14.058045 eV
 Leave Link  502 at Mon Nov 10 11:02:31 2003, MaxMem=   83886080 cpu:     859.4
 (Enter /mf/frisch/g03/l701.exe)
 Compute integral first derivatives.
 ... and contract with generalized density number  0.
   1 Symmetry operations used in ECPInt.
 ECPInt:  NShTT=      36 NPrTT=     324 LenC2=    1641 LenP2D=    5608.
 LDataN:  DoStor=F MaxTD1= 4 Len=   56
 LDataN:  DoStor=T MaxTD1= 4 Len=   56
 Leave Link  701 at Mon Nov 10 11:04:20 2003, MaxMem=   83886080 cpu:     108.1
 (Enter /mf/frisch/g03/l702.exe)
 L702 exits ... SP integral derivatives will be done elsewhere.
 Leave Link  702 at Mon Nov 10 11:04:20 2003, MaxMem=   83886080 cpu:       0.0
 (Enter /mf/frisch/g03/l703.exe)
 Compute integral first derivatives, UseDBF=F.
 Integral derivatives from FoFDir, PRISM(SPDF).
 Calling FoFCou, ICntrl=  2527 FMM=T ISym2X=0 I1Cent= 0 ISCF1= 0.
 FoFCou: FMM=T IPFlag=           0 FMFlag=      990000 FMFlg1=        4097
 NFxFlg=           0 DoJE=F BraDBF=F KetDBF=F FulRan=T.
 Symmetry not used in FoFCou.
 FMM levels:   3  Number of levels for PrismC:   1
 RepCel:  MaxNCR=     233 NClRep=     233 NMtPBC=     233.
 Leave Link  703 at Mon Nov 10 11:08:22 2003, MaxMem=   83886080 cpu:     241.2
 (Enter /mf/frisch/g03/l716.exe)
 -------------------------------------------------------------------
 Center     Atomic                   Forces (Hartrees/Bohr)
 Number     Number              X              Y              Z
 -------------------------------------------------------------------
    1         11           0.000000000    0.000000000    0.000000000
    2         17           0.000000000    0.000000000    0.000000000
    3         17           0.000000000    0.000000000    0.000000000
    4         11           0.000000000    0.000000000    0.000000000
    5         17           0.000000000    0.000000000    0.000000000
    6         11           0.000000000    0.000000000    0.000000000
    7         11           0.000000000    0.000000000    0.000000000
    8         17           0.000000000    0.000000000    0.000000000
              -2          -0.039648874    0.000000000    0.000000000
              -2           0.000000000   -0.039648874    0.000000000
              -2           0.000000000    0.000000000   -0.039648874
 -------------------------------------------------------------------
 Cartesian Forces:  Max     0.039648874 RMS     0.011954585
 Leave Link  716 at Mon Nov 10 11:08:22 2003, MaxMem=   83886080 cpu:       0.0
 (Enter /mf/frisch/g03/l103.exe)

 GradGradGradGradGradGradGradGradGradGradGradGradGradGradGradGradGradGrad
 Berny optimization.
 Internal  Forces:  Max     0.009912219 RMS     0.004046646
 Search for a local minimum.
 Step number   2 out of a maximum of 100
 All quantities printed in internal units (Hartrees-Bohrs-Radians)
 Update second derivatives using D2CorX and points  1  2
 Trust test= 1.26D+00 RLast= 6.62D-01 DXMaxT set to 1.00D+00
 Maximum step size (   1.000) exceeded in linear search.
    -- Step size scaled by   0.756
 Quartic linear search produced a step of  1.51147.
 Iteration  1 RMS(Cart)=  0.07071068 RMS(Int)=  0.00168368
 Iteration  2 RMS(Cart)=  0.00145811 RMS(Int)=  0.00000000
 Iteration  3 RMS(Cart)=  0.00000000 RMS(Int)=  0.00000000
 Variable       Old X    -DE/DX   Delta X   Delta X   Delta X     New X
                                 (Linear)    (Quad)   (Total)
    R1        5.16495  -0.00991  -0.20412   0.00000  -0.20412   4.96083
    R2        5.16495  -0.00991  -0.20412   0.00000  -0.20412   4.96083
    R3        5.16495  -0.00991  -0.20412   0.00000  -0.20412   4.96083
    R4        5.16495  -0.00991  -0.20412   0.00000  -0.20412   4.96083
    R5        5.16495  -0.00991  -0.20412   0.00000  -0.20412   4.96083
    R6        5.16495  -0.00991  -0.20412   0.00000  -0.20412   4.96083
    R7        5.16495  -0.00991  -0.20412   0.00000  -0.20412   4.96083
    R8        5.16495  -0.00991  -0.20412   0.00000  -0.20412   4.96083
    R9        5.16495  -0.00991  -0.20412   0.00000  -0.20412   4.96083
   R10        5.16495  -0.00991  -0.20412   0.00000  -0.20412   4.96083
   R11        5.16495  -0.00991  -0.20412   0.00000  -0.20412   4.96083
   R12        5.16495  -0.00991  -0.20412   0.00000  -0.20412   4.96083
   R13        5.16495  -0.00991  -0.20412   0.00000  -0.20412   4.96083
   R14        5.16495  -0.00991  -0.20412   0.00000  -0.20412   4.96083
   R15        5.16495  -0.00991  -0.20412   0.00000  -0.20412   4.96083
   R16        5.16495  -0.00991  -0.20412   0.00000  -0.20412   4.96083
   R17        5.16495  -0.00991  -0.20412   0.00000  -0.20412   4.96083
   R18        5.16495  -0.00991  -0.20412   0.00000  -0.20412   4.96083
   R19        5.16495  -0.00991  -0.20412   0.00000  -0.20412   4.96083
   R20        5.16495  -0.00991  -0.20412   0.00000  -0.20412   4.96083
   R21        5.16495  -0.00991  -0.20412   0.00000  -0.20412   4.96083
   R22        5.16495  -0.00991  -0.20412   0.00000  -0.20412   4.96083
   R23        5.16495  -0.00991  -0.20412   0.00000  -0.20412   4.96083
   R24        5.16495  -0.00991  -0.20412   0.00000  -0.20412   4.96083
    A1        1.57080   0.00000   0.00000   0.00000   0.00000   1.57080
    A2        1.57080   0.00000   0.00000   0.00000   0.00000   1.57080
    A3        1.57080   0.00000   0.00000   0.00000   0.00000   1.57080
    A4        1.57080   0.00000   0.00000   0.00000   0.00000   1.57080
    A5        1.57080   0.00000   0.00000   0.00000   0.00000   1.57080
    A6        1.57080   0.00000   0.00000   0.00000   0.00000   1.57080
    A7        1.57080   0.00000   0.00000   0.00000   0.00000   1.57080
    A8        1.57080   0.00000   0.00000   0.00000   0.00000   1.57080
    A9        1.57080   0.00000   0.00000   0.00000   0.00000   1.57080
   A10        1.57080   0.00000   0.00000   0.00000   0.00000   1.57080
   A11        1.57080   0.00000   0.00000   0.00000   0.00000   1.57080
   A12        1.57080   0.00000   0.00000   0.00000   0.00000   1.57080
   A13        1.57080   0.00000   0.00000   0.00000   0.00000   1.57080
   A14        1.57080   0.00000   0.00000   0.00000   0.00000   1.57080
   A15        1.57080   0.00000   0.00000   0.00000   0.00000   1.57080
   A16        1.57080   0.00000   0.00000   0.00000   0.00000   1.57080
   A17        1.57080   0.00000   0.00000   0.00000   0.00000   1.57080
   A18        1.57080   0.00000   0.00000   0.00000   0.00000   1.57080
   A19        1.57080   0.00000   0.00000   0.00000   0.00000   1.57080
   A20        1.57080   0.00000   0.00000   0.00000   0.00000   1.57080
   A21        1.57080   0.00000   0.00000   0.00000   0.00000   1.57080
   A22        1.57080   0.00000   0.00000   0.00000   0.00000   1.57080
   A23        1.57080   0.00000   0.00000   0.00000   0.00000   1.57080
   A24        1.57080   0.00000   0.00000   0.00000   0.00000   1.57080
   A25        1.57080   0.00000   0.00000   0.00000   0.00000   1.57080
   A26        1.57080   0.00000   0.00000   0.00000   0.00000   1.57080
   A27        1.57080   0.00000   0.00000   0.00000   0.00000   1.57080
   A28        1.57080   0.00000   0.00000   0.00000   0.00000   1.57080
   A29        1.57080   0.00000   0.00000   0.00000   0.00000   1.57080
   A30        1.57080   0.00000   0.00000   0.00000   0.00000   1.57080
   A31        1.57080   0.00000   0.00000   0.00000   0.00000   1.57080
   A32        1.57080   0.00000   0.00000   0.00000   0.00000   1.57080
   A33        1.57080   0.00000   0.00000   0.00000   0.00000   1.57080
   A34        1.57080   0.00000   0.00000   0.00000   0.00000   1.57080
   A35        1.57080   0.00000   0.00000   0.00000   0.00000   1.57080
   A36        1.57080   0.00000   0.00000   0.00000   0.00000   1.57080
   A37        1.57080   0.00000   0.00000   0.00000   0.00000   1.57080
   A38        1.57080   0.00000   0.00000   0.00000   0.00000   1.57080
   A39        1.57080   0.00000   0.00000   0.00000   0.00000   1.57080
   A40        1.57080   0.00000   0.00000   0.00000   0.00000   1.57080
   A41        1.57080   0.00000   0.00000   0.00000   0.00000   1.57080
   A42        1.57080   0.00000   0.00000   0.00000   0.00000   1.57080
   A43        1.57080   0.00000   0.00000   0.00000   0.00000   1.57080
   A44        1.57080   0.00000   0.00000   0.00000   0.00000   1.57080
   A45        1.57080   0.00000   0.00000   0.00000   0.00000   1.57080
   A46        1.57080   0.00000   0.00000   0.00000   0.00000   1.57080
   A47        1.57080   0.00000   0.00000   0.00000   0.00000   1.57080
[...]
   A116       3.14159   0.00000   0.00000   0.00000   0.00000   3.14159
   A117       3.14159   0.00000   0.00000   0.00000   0.00000   3.14159
   A118       3.14159   0.00000   0.00000   0.00000   0.00000   3.14159
   A119       3.14159   0.00000   0.00000   0.00000   0.00000   3.14159
   A120       3.14159   0.00000   0.00000   0.00000   0.00000   3.14159
         Item               Value     Threshold  Converged?
 Maximum Force            0.000036     0.000450     YES
 RMS     Force            0.000015     0.000300     YES
 Maximum Displacement     0.001636     0.001800     YES
 RMS     Displacement     0.000289     0.001200     YES
 Predicted change in Energy=-3.880199D-07
 Optimization completed.
    -- Stationary point found.
                           ----------------------------
                           !   Optimized Parameters   !
                           ! (Angstroms and Degrees)  !
 --------------------------                            --------------------------
 ! Name  Definition              Value          Derivative Info.                !
 --------------------------------------------------------------------------------
 ! R1    R(1,2)                  2.5713         -DE/DX =    0.0                 !
 ! R2    R(1,3)                  2.5713         -DE/DX =    0.0                 !
 ! R3    R(1,5)                  2.5713         -DE/DX =    0.0                 !
 ! R4    R(2,4)                  2.5713         -DE/DX =    0.0                 !
 ! R5    R(2,6)                  2.5713         -DE/DX =    0.0                 !
 ! R6    R(2,12)                 2.5713         -DE/DX =    0.0                 !
 ! R7    R(3,4)                  2.5713         -DE/DX =    0.0                 !
 ! R8    R(3,7)                  2.5713         -DE/DX =    0.0                 !
 ! R9    R(3,23)                 2.5713         -DE/DX =    0.0                 !
 ! R10   R(4,8)                  2.5713         -DE/DX =    0.0                 !
 ! R11   R(4,14)                 2.5713         -DE/DX =    0.0                 !
 ! R12   R(4,24)                 2.5713         -DE/DX =    0.0                 !
 ! R13   R(5,6)                  2.5713         -DE/DX =    0.0                 !
 ! R14   R(5,7)                  2.5713         -DE/DX =    0.0                 !
 ! R15   R(5,45)                 2.5713         -DE/DX =    0.0                 !
 ! R16   R(6,8)                  2.5713         -DE/DX =    0.0                 !
 ! R17   R(6,16)                 2.5713         -DE/DX =    0.0                 !
 ! R18   R(6,46)                 2.5713         -DE/DX =    0.0                 !
 ! R19   R(7,8)                  2.5713         -DE/DX =    0.0                 !
 ! R20   R(7,27)                 2.5713         -DE/DX =    0.0                 !
 ! R21   R(7,47)                 2.5713         -DE/DX =    0.0                 !
 ! R22   R(8,18)                 2.5713         -DE/DX =    0.0                 !
 ! R23   R(8,28)                 2.5713         -DE/DX =    0.0                 !
 ! R24   R(8,48)                 2.5713         -DE/DX =    0.0                 !
 ! A1    A(2,1,3)               90.0            -DE/DX =    0.0                 !
 ! A2    A(2,1,5)               90.0            -DE/DX =    0.0                 !
 ! A3    A(3,1,5)               90.0            -DE/DX =    0.0                 !
 ! A4    A(1,2,4)               90.0            -DE/DX =    0.0                 !
 ! A5    A(1,2,6)               90.0            -DE/DX =    0.0                 !
 ! A6    A(4,2,6)               90.0            -DE/DX =    0.0                 !
 ! A7    A(4,2,12)              90.0            -DE/DX =    0.0                 !
 ! A8    A(6,2,12)              90.0            -DE/DX =    0.0                 !
 ! A9    A(1,3,4)               90.0            -DE/DX =    0.0                 !
 ! A10   A(1,3,7)               90.0            -DE/DX =    0.0                 !
 ! A11   A(4,3,7)               90.0            -DE/DX =    0.0                 !
 ! A12   A(4,3,23)              90.0            -DE/DX =    0.0                 !
 ! A13   A(7,3,23)              90.0            -DE/DX =    0.0                 !
 ! A14   A(2,4,3)               90.0            -DE/DX =    0.0                 !
 ! A15   A(2,4,8)               90.0            -DE/DX =    0.0                 !
 ! A16   A(2,4,14)              90.0            -DE/DX =    0.0                 !
 ! A17   A(3,4,8)               90.0            -DE/DX =    0.0                 !
 ! A18   A(3,4,24)              90.0            -DE/DX =    0.0                 !
 ! A19   A(8,4,14)              90.0            -DE/DX =    0.0                 !
 ! A20   A(8,4,24)              90.0            -DE/DX =    0.0                 !
 ! A21   A(14,4,24)             90.0            -DE/DX =    0.0                 !
 ! A22   A(1,5,6)               90.0            -DE/DX =    0.0                 !
 ! A23   A(1,5,7)               90.0            -DE/DX =    0.0                 !
 ! A24   A(6,5,7)               90.0            -DE/DX =    0.0                 !
 ! A25   A(6,5,45)              90.0            -DE/DX =    0.0                 !
 ! A26   A(7,5,45)              90.0            -DE/DX =    0.0                 !
 ! A27   A(2,6,5)               90.0            -DE/DX =    0.0                 !
 ! A28   A(2,6,8)               90.0            -DE/DX =    0.0                 !
 ! A29   A(2,6,16)              90.0            -DE/DX =    0.0                 !
 ! A30   A(5,6,8)               90.0            -DE/DX =    0.0                 !
 ! A31   A(5,6,46)              90.0            -DE/DX =    0.0                 !
 ! A32   A(8,6,16)              90.0            -DE/DX =    0.0                 !
 ! A33   A(8,6,46)              90.0            -DE/DX =    0.0                 !
 ! A34   A(16,6,46)             90.0            -DE/DX =    0.0                 !
 ! A35   A(3,7,5)               90.0            -DE/DX =    0.0                 !
 ! A36   A(3,7,8)               90.0            -DE/DX =    0.0                 !
 ! A37   A(3,7,27)              90.0            -DE/DX =    0.0                 !
 ! A38   A(5,7,8)               90.0            -DE/DX =    0.0                 !
 ! A39   A(5,7,47)              90.0            -DE/DX =    0.0                 !
 ! A40   A(8,7,27)              90.0            -DE/DX =    0.0                 !
 ! A41   A(8,7,47)              90.0            -DE/DX =    0.0                 !
 ! A42   A(27,7,47)             90.0            -DE/DX =    0.0                 !
 ! A43   A(4,8,6)               90.0            -DE/DX =    0.0                 !
 ! A44   A(4,8,7)               90.0            -DE/DX =    0.0                 !
 ! A45   A(4,8,18)              90.0            -DE/DX =    0.0                 !
 ! A46   A(4,8,28)              90.0            -DE/DX =    0.0                 !
 ! A47   A(6,8,7)               90.0            -DE/DX =    0.0                 !
 ! A48   A(6,8,18)              90.0            -DE/DX =    0.0                 !
 ! A49   A(6,8,48)              90.0            -DE/DX =    0.0                 !
 ! A50   A(7,8,28)              90.0            -DE/DX =    0.0                 !
 ! A51   A(7,8,48)              90.0            -DE/DX =    0.0                 !
 ! A52   A(18,8,28)             90.0            -DE/DX =    0.0                 !
 ! A53   A(18,8,48)             90.0            -DE/DX =    0.0                 !
 ! A54   A(28,8,48)             90.0            -DE/DX =    0.0                 !
 ! A55   A(2,12,14)             90.0            -DE/DX =    0.0                 !
 ! A56   A(2,12,16)             90.0            -DE/DX =    0.0                 !
 ! A57   A(4,14,12)             90.0            -DE/DX =    0.0                 !
 ! A58   A(4,14,18)             90.0            -DE/DX =    0.0                 !
 ! A59   A(4,14,34)             90.0            -DE/DX =    0.0                 !
 ! A60   A(6,16,12)             90.0            -DE/DX =    0.0                 !
 ! A61   A(6,16,18)             90.0            -DE/DX =    0.0                 !
 ! A62   A(6,16,56)             90.0            -DE/DX =    0.0                 !
 ! A63   A(8,18,14)             90.0            -DE/DX =    0.0                 !
 ! A64   A(8,18,16)             90.0            -DE/DX =    0.0                 !
 ! A65   A(8,18,38)             90.0            -DE/DX =    0.0                 !
 ! A66   A(8,18,58)             90.0            -DE/DX =    0.0                 !
 ! A67   A(3,23,24)             90.0            -DE/DX =    0.0                 !
 ! A68   A(3,23,27)             90.0            -DE/DX =    0.0                 !
 ! A69   A(4,24,23)             90.0            -DE/DX =    0.0                 !
 ! A70   A(4,24,28)             90.0            -DE/DX =    0.0                 !
 ! A71   A(4,24,34)             90.0            -DE/DX =    0.0                 !
 ! A72   A(7,27,23)             90.0            -DE/DX =    0.0                 !
 ! A73   A(7,27,28)             90.0            -DE/DX =    0.0                 !
 ! A74   A(7,27,67)             90.0            -DE/DX =    0.0                 !
 ! A75   A(8,28,24)             90.0            -DE/DX =    0.0                 !
 ! A76   A(8,28,27)             90.0            -DE/DX =    0.0                 !
 ! A77   A(8,28,38)             90.0            -DE/DX =    0.0                 !
 ! A78   A(8,28,68)             90.0            -DE/DX =    0.0                 !
 ! A79   A(14,34,24)            90.0            -DE/DX =    0.0                 !
 ! A80   A(18,38,28)            90.0            -DE/DX =    0.0                 !
 ! A81   A(5,45,46)             90.0            -DE/DX =    0.0                 !
 ! A82   A(5,45,47)             90.0            -DE/DX =    0.0                 !
 ! A83   A(6,46,45)             90.0            -DE/DX =    0.0                 !
 ! A84   A(6,46,48)             90.0            -DE/DX =    0.0                 !
 ! A85   A(6,46,56)             90.0            -DE/DX =    0.0                 !
 ! A86   A(7,47,45)             90.0            -DE/DX =    0.0                 !
 ! A87   A(7,47,48)             90.0            -DE/DX =    0.0                 !
 ! A88   A(7,47,67)             90.0            -DE/DX =    0.0                 !
 ! A89   A(8,48,46)             90.0            -DE/DX =    0.0                 !
 ! A90   A(8,48,47)             90.0            -DE/DX =    0.0                 !
 ! A91   A(8,48,58)             90.0            -DE/DX =    0.0                 !
 ! A92   A(8,48,68)             90.0            -DE/DX =    0.0                 !
 ! A93   A(16,56,46)            90.0            -DE/DX =    0.0                 !
 ! A94   A(18,58,48)            90.0            -DE/DX =    0.0                 !
 ! A95   A(27,67,47)            90.0            -DE/DX =    0.0                 !
 ! A96   A(28,68,48)            90.0            -DE/DX =    0.0                 !
 ! A97   L(1,2,12,4,-2)        180.0            -DE/DX =    0.0                 !
 ! A98   L(1,3,23,4,-2)        180.0            -DE/DX =    0.0                 !
 ! A99   L(2,4,24,3,-2)        180.0            -DE/DX =    0.0                 !
 ! A100  L(3,4,14,2,-2)        180.0            -DE/DX =    0.0                 !
 ! A101  L(1,5,45,6,-2)        180.0            -DE/DX =    0.0                 !
 ! A102  L(2,6,46,5,-2)        180.0            -DE/DX =    0.0                 !
 ! A103  L(5,6,16,2,-2)        180.0            -DE/DX =    0.0                 !
 ! A104  L(3,7,47,5,-2)        180.0            -DE/DX =    0.0                 !
 ! A105  L(5,7,27,3,-2)        180.0            -DE/DX =    0.0                 !
 ! A106  L(4,8,48,6,-2)        180.0            -DE/DX =    0.0                 !
 ! A107  L(6,8,28,4,-2)        180.0            -DE/DX =    0.0                 !
 ! A108  L(7,8,18,4,-2)        180.0            -DE/DX =    0.0                 !
 ! A109  L(2,12,13,14,-2)      180.0            -DE/DX =    0.0                 !
 ! A110  L(4,14,15,12,-2)      180.0            -DE/DX =    0.0                 !
 ! A111  L(6,16,17,12,-2)      180.0            -DE/DX =    0.0                 !
 ! A112  L(8,18,19,14,-2)      180.0            -DE/DX =    0.0                 !
 ! A113  L(3,23,25,24,-2)      180.0            -DE/DX =    0.0                 !
 ! A114  L(4,24,26,23,-2)      180.0            -DE/DX =    0.0                 !
 ! A115  L(7,27,29,23,-2)      180.0            -DE/DX =    0.0                 !
 ! A116  L(8,28,30,24,-2)      180.0            -DE/DX =    0.0                 !
 ! A117  L(5,45,49,46,-2)      180.0            -DE/DX =    0.0                 !
 ! A118  L(6,46,50,45,-2)      180.0            -DE/DX =    0.0                 !
 ! A119  L(7,47,51,45,-2)      180.0            -DE/DX =    0.0                 !
 ! A120  L(8,48,52,46,-2)      180.0            -DE/DX =    0.0                 !
 --------------------------------------------------------------------------------
 GradGradGradGradGradGradGradGradGradGradGradGradGradGradGradGradGradGrad

 Largest change from initial coordinates is atom   11       0.467 Angstoms.
 Leave Link  103 at Mon Nov 10 12:00:12 2003, MaxMem=   83886080 cpu:       0.5
 (Enter /mf/frisch/g03/l202.exe)
                          Input orientation:                          
 ---------------------------------------------------------------------
 Center     Atomic     Atomic              Coordinates (Angstroms)
 Number     Number      Type              X           Y           Z
 ---------------------------------------------------------------------
    1         11             0       -1.285636   -1.285636   -1.285636
    2         17             0       -1.285636   -1.285636    1.285636
    3         17             0       -1.285636    1.285636   -1.285636
    4         11             0       -1.285636    1.285636    1.285636
    5         17             0        1.285636   -1.285636   -1.285636
    6         11             0        1.285636   -1.285636    1.285636
    7         11             0        1.285636    1.285636   -1.285636
    8         17             0        1.285636    1.285636    1.285636
    9         -2             0        5.142544    0.000000    0.000000
   10         -2             0        0.000000    5.142544    0.000000
   11         -2             0        0.000000    0.000000    5.142544
 ---------------------------------------------------------------------
 Lengths of translation vectors:      5.142544    5.142544    5.142544
  Angles of translation vectors:     90.000000   90.000000   90.000000
 ---------------------------------------------------------------------
                    Distance matrix (angstroms):
                    1          2          3          4          5
     1  Na   0.000000
     2  Cl   2.571272   0.000000
     3  Cl   2.571272   3.636328   0.000000
     4  Na   3.636328   2.571272   2.571272   0.000000
     5  Cl   2.571272   3.636328   3.636328   4.453574   0.000000
     6  Na   3.636328   2.571272   4.453574   3.636328   2.571272
     7  Na   3.636328   4.453574   2.571272   3.636328   2.571272
     8  Cl   4.453574   3.636328   3.636328   2.571272   3.636328
     9  TV   6.680361   6.680361   6.680361   6.680361   4.263972
    10  TV   6.680361   6.680361   4.263972   4.263972   6.680361
    11  TV   6.680361   4.263972   6.680361   4.263972   6.680361
                    6          7          8          9         10
     6  Na   0.000000
     7  Na   3.636328   0.000000
     8  Cl   2.571272   2.571272   0.000000
     9  TV   4.263972   4.263972   4.263972   0.000000
    10  TV   6.680361   4.263972   4.263972   7.272655   0.000000
    11  TV   4.263972   6.680361   4.263972   7.272655   7.272655
                   11
    11  TV   0.000000
 Symmetry turned off by external request.
 Symmetry turned off:
 Cannot cope with ghost atoms or with translation vectors.
 Stoichiometry    Cl4Na4
 Framework group  C1[X(Cl4Na4)]
 Deg. of freedom    18
 Full point group                 C1      NOp   1
 Leave Link  202 at Mon Nov 10 12:00:12 2003, MaxMem=   83886080 cpu:       0.2
 (Enter /mf/frisch/g03/l601.exe)
 Copying SCF densities to generalized density rwf, ISCF=0 IROHF=0.

 **********************************************************************

            Population analysis using the SCF density.

 **********************************************************************

 Alpha  occ. eigenvalues --   -0.52512  -0.48411  -0.48411  -0.48411  -0.10205
 Alpha  occ. eigenvalues --   -0.10205  -0.10205  -0.04875  -0.04875  -0.04875
 Alpha  occ. eigenvalues --   -0.04875  -0.04875  -0.04875  -0.01565  -0.01565
 Alpha  occ. eigenvalues --   -0.01565
 Alpha virt. eigenvalues --    0.54366   0.56514   0.56514   0.56514   1.24395
 Alpha virt. eigenvalues --    1.24395   1.24395   1.35234   1.35234   1.35234
 Alpha virt. eigenvalues --    1.35234   1.35234   1.35234   1.40940   1.40940
 Alpha virt. eigenvalues --    1.40940
          Condensed to atoms (all electrons):
              1          2          3          4          5          6
     1  Na   0.068106   0.059040   0.059040   0.000875   0.059040   0.000875
     2  Cl   0.059040   7.590254  -0.005050   0.059040  -0.005050   0.059040
     3  Cl   0.059040  -0.005050   7.590254   0.059040  -0.005050  -0.000037
     4  Na   0.000875   0.059040   0.059040   0.068106  -0.000037   0.000875
     5  Cl   0.059040  -0.005050  -0.005050  -0.000037   7.590254   0.059040
     6  Na   0.000875   0.059040  -0.000037   0.000875   0.059040   0.068106
     7  Na   0.000875  -0.000037   0.059040   0.000875   0.059040   0.000875
     8  Cl  -0.000037  -0.005050  -0.005050   0.059040  -0.005050   0.059040
              7          8
     1  Na   0.000875  -0.000037
     2  Cl  -0.000037  -0.005050
     3  Cl   0.059040  -0.005050
     4  Na   0.000875   0.059040
     5  Cl   0.059040  -0.005050
     6  Na   0.000875   0.059040
     7  Na   0.068106   0.059040
     8  Cl   0.059040   7.590254
 Mulliken atomic charges:
              1
     1  Na   0.752187
     2  Cl  -0.752187
     3  Cl  -0.752187
     4  Na   0.752187
     5  Cl  -0.752187
     6  Na   0.752187
     7  Na   0.752187
     8  Cl  -0.752187
 Sum of Mulliken charges=   0.00000
 Atomic charges with hydrogens summed into heavy atoms:
              1
     1  Na   0.752187
     2  Cl  -0.752187
     3  Cl  -0.752187
     4  Na   0.752187
     5  Cl  -0.752187
     6  Na   0.752187
     7  Na   0.752187
     8  Cl  -0.752187
 Sum of Mulliken charges=   0.00000
 Charge=     0.0000 electrons
 Dipole moment (field-independent basis, Debye):
    X=     0.0000    Y=     0.0000    Z=     0.0000  Tot=     0.0000
 Leave Link  601 at Mon Nov 10 12:00:12 2003, MaxMem=   83886080 cpu:       0.1
 (Enter /mf/frisch/g03/l9999.exe)

 Test job not archived.
 1\1\GINC-GORDY\FOpt\RSVWN\Gen\Cl4Na4\FRISCH\10-Nov-2003\0\\#P LSDA/GEN
  PSEUDO=LANL1 OPT=(MODRED,EXPERT) UNITS=AU TEST\\Gaussian Test Job 589
 : NaCl 3d test\\0,1\Na,-1.2856359784,-1.2856359784,-1.2856359784\Cl,-1
 .2856359784,-1.2856359784,1.2856359784\Cl,-1.2856359784,1.2856359784,-
 1.2856359783\Na,-1.2856359784,1.2856359784,1.2856359784\Cl,1.285635978
 4,-1.2856359784,-1.2856359784\Na,1.2856359784,-1.2856359784,1.28563597
 83\Na,1.2856359784,1.2856359784,-1.2856359784\Cl,1.2856359784,1.285635
 9784,1.2856359784\TV,5.1425439137,0.,0.\TV,0.,5.1425439137,0.000000000
 1\TV,0.,0.0000000001,5.1425439135\\Version=SGI64-G03RevB.05\HF=-59.527
 214\RMSD=3.399e-08\RMSF=4.381e-05\Dipole=0.,0.,0.\PG=C01 [X(Cl4Na4)]\\
 @


 REVOLUTIONS HAVE NEVER LIGHTENED THE BURDEN OF TYRANNY:
 THEY HAVE MERELY SHIFTED IT TO OTHER SHOULDERS.
                                   -- G. B. SHAW (1903)
 Job cpu time:  0 days  1 hours 32 minutes 37.8 seconds.
 File lengths (MBytes):  RWF=    136 Int=      0 D2E=      0 Chk=     12 Scr=      1
 Normal termination of Gaussian 03 at Mon Nov 10 12:00:13 2003.
