/home/crystal1/matteo/CRY09-dist/bin_P/Linux-ifort-11.1_emt64/v1_0_1/Pcrystal
/data/crystal1/tmp_p10122
TEST11 - MGO BULK
CRYSTAL
0 0 0
 225
4.07900843
2
 12 0.    0.    0.
  8 0.5   0.5   0.5
SCELPHONO
2 0 0
0 2 0
0 0 2
FREQCALC
DISPERSI
END
END
12  3
 0  0  8  2.  1.
 68371.875      0.0002226
  9699.34009    0.0018982
  2041.176786   0.0110451
   529.862906   0.0500627
   159.186000   0.169123
    54.6848     0.367031
    21.2357     0.400410
     8.74604    0.14987
0 1 6 8. 1.
156.795  -0.00624  0.00772
31.0339  -0.07882  0.06427
9.6453   -0.07992  0.2104
3.7109    0.29063  0.34314
1.61164   0.57164  0.3735
0.64294   0.30664  0.23286
0 1 1 0. 1.
0.5       1.       1.
8 3
0 0 8 2. 1.
4000.    0.00144
1355.58  0.00764
248.545  0.05370
69.5339  0.16818
23.8868  0.36039
9.27593  0.38612
3.82034  0.14712
1.23514  0.07105
0 1 5 8. 1.
52.1878 -0.00873  0.00922
10.3293 -0.08979  0.07068
3.21034 -0.04079  0.20433
1.23514  0.37666  0.34958
0.536420 0.42248  0.27774
0 1 1 0. 1.
0.260000 1.  1.
99   0
END
SCFDIR
EXCHGENE
DFT
CORRELAT
VWN
EXCHANGE
LDA
LGRID
END
SHRINK
6 6
TOLINTEG
6 6 6 6 12
FMIXING
35
LEVSHIFT
6 1
TOLDEE
9
END

mer set  7 07:48:20 CEST 2011
 PROCESS            0  OF            1  WORKING

         
 *******************************************************************************
 *                                                                             *
 *                                CRYSTAL09                                    *
 *                              develop : 1.0                                  *
 *                      February 15, 2010 - parallel executable                *
 *                                                                             *
 *                                                                             *
 *                                                                             *
 *                              MAIN AUTHORS                                   *
 *                                                                             *
 *    R. DOVESI(1,10), V.R. SAUNDERS(2), C. ROETTI(1,10), R. ORLANDO (1,3),    *
 *  C.M. ZICOVICH-WILSON(1,4), F. PASCALE(5), B. CIVALLERI(1,10), K. DOLL(6),  *
 *       N.M. HARRISON(2,7), I. J. BUSH(2), Ph. D'ARCO(8), M. LLUNELL(9)       *
 *                                                                             *
 * (1) THEORETICAL CHEMISTRY GROUP - UNIVERSITA' DI TORINO - TORINO (ITALY)    *
 *      http://www.crystal.unito.it                                            *
 * (2) COMPUTATIONAL SCIENCE & ENGINEERING DEPARTMENT - CCLRC DARESBURY (UK)   *
 *     http://www.cse.clrc.ac.uk/cmg/CRYSTAL/                                  *
 * (3) UNIVERSITA' DEL PIEMONTE ORIENTALE - ALESSANDRIA (ITALY)                *
 * (4) UNIVERSIDAD AUTONOMA DEL ESTADO DE MORELOS - CUERNAVACA (MEXICO)        *
 * (5) UNIVERSITE' HENRI POINCARE' - NANCY (FRANCE)                            *
 * (6) MPI FUER FESTKOERPERFORSCHUNG - STUTTGART (GERMANY)                     *
 * (7) IMPERIAL COLLEGE - LONDON (UK)                                          *
 * (8) UNIVERSITE' PIERRE ET MARIE CURIE - PARIS (FRANCE)                      *
 * (9) UNIVERSIDAD DE BARCELONA - BARCELONA (SPAIN)                            *
 *(10) NIS - NANOSTRUCTURED INTERFACES AND SURFACES - TORINO (ITALY)           *
 *     http://www.crystal.unito.it                                             *
 *******************************************************************************
 EEEEEEEEEE STARTING  DATE 07 09 2011 TIME 07:48:20.7
 TEST11 - MGO BULK                                                               

 CRYSTAL CALCULATION
 (INPUT ACCORDING TO THE INTERNATIONAL TABLES FOR X-RAY CRYSTALLOGRAPHY)
 CRYSTAL FAMILY                       :  CUBIC       
 CRYSTAL CLASS  (GROTH - 1921)        :  CUBIC HEXAKISOCTAHEDRAL              

 SPACE GROUP (CENTROSYMMETRIC)        :  F M 3 M         

 LATTICE PARAMETERS  (ANGSTROMS AND DEGREES) - CONVENTIONAL CELL
        A           B           C        ALPHA        BETA       GAMMA
     4.07901     4.07901     4.07901    90.00000    90.00000    90.00000


 NUMBER OF IRREDUCIBLE ATOMS IN THE CONVENTIONAL CELL:    2

 INPUT COORDINATES

 ATOM AT. N.              COORDINATES
   1  12     0.000000000000E+00  0.000000000000E+00  0.000000000000E+00
   2   8     5.000000000000E-01  5.000000000000E-01  5.000000000000E-01

 *******************************************************************************

 << INFORMATION >>: FROM NOW ON, ALL COORDINATES REFER TO THE PRIMITIVE CELL

 *******************************************************************************

 LATTICE PARAMETERS  (ANGSTROMS AND DEGREES) - PRIMITIVE CELL
       A          B          C         ALPHA     BETA     GAMMA        VOLUME
    2.88429    2.88429    2.88429    60.00000  60.00000  60.00000     16.966951

 COORDINATES OF THE EQUIVALENT ATOMS (FRACTIONAL UNITS)

 N. ATOM EQUIV AT. N.          X                  Y                  Z

   1   1   1   12 MG    0.00000000000E+00  0.00000000000E+00  0.00000000000E+00

   2   2   1    8 O    -5.00000000000E-01 -5.00000000000E-01 -5.00000000000E-01

 NUMBER OF SYMMETRY OPERATORS         :   48
 *******************************************************************************
 * GEOMETRY EDITING - INPUT COORDINATES ARE GIVEN IN ANGSTROM         
 *******************************************************************************

 GEOMETRY NOW FULLY CONSISTENT WITH THE GROUP

 NO SYMMOPS WITH FINITE TRANSLATIONAL COMPONENT

 *******************************************************************************
 * SUPERCELL OPTION
 *******************************************************************************


        EXPANSION MATRIX OF PRIMITIVE CELL
 E1     2.000     0.000     0.000
 E2     0.000     2.000     0.000
 E3     0.000     0.000     2.000

 NUMBER OF ATOMS PER SUPERCELL   16

        DIRECT LATTICE VECTORS COMPONENTS (ANGSTROM)
 B1     0.000     4.079     4.079
 B2     4.079     0.000     4.079
 B3     4.079     4.079     0.000

 LATTICE PARAMETERS  (ANGSTROM AND DEGREES)
       A          B          C         ALPHA     BETA     GAMMA        VOLUME
    5.76859    5.76859    5.76859    60.00000  60.00000  60.00000    135.735612


 **** ATOMS BELONGING TO THE SUPERCELL
 LABEL AT.NO.      COORDINATES (ANGSTROM AND FRACTIONAL)
     1    12     0.0000     0.0000     0.0000     0.0000     0.0000     0.0000
     2    12    -2.0395    -2.0395     0.0000     0.0000     0.0000    -0.5000
     3    12    -2.0395     0.0000    -2.0395     0.0000    -0.5000     0.0000
     4    12    -4.0790    -2.0395    -2.0395     0.0000    -0.5000    -0.5000
     5    12     0.0000    -2.0395    -2.0395    -0.5000     0.0000     0.0000
     6    12    -2.0395    -4.0790    -2.0395    -0.5000     0.0000    -0.5000
     7    12    -2.0395    -2.0395    -4.0790    -0.5000    -0.5000     0.0000
     8    12    -4.0790    -4.0790    -4.0790    -0.5000    -0.5000    -0.5000
     9     8     2.0395     2.0395     2.0395     0.2500     0.2500     0.2500
    10     8     0.0000     0.0000     2.0395     0.2500     0.2500    -0.2500
    11     8     0.0000     2.0395     0.0000     0.2500    -0.2500     0.2500
    12     8    -2.0395     0.0000     0.0000     0.2500    -0.2500    -0.2500
    13     8     2.0395     0.0000     0.0000    -0.2500     0.2500     0.2500
    14     8     0.0000    -2.0395     0.0000    -0.2500     0.2500    -0.2500
    15     8     0.0000     0.0000    -2.0395    -0.2500    -0.2500     0.2500
    16     8    -2.0395    -2.0395    -2.0395    -0.2500    -0.2500    -0.2500

 **************************** SUPERCELL GENERATED ****************************

 **** ATOMS IN THE SUPERCELL REORDERED FOR PHONON CALCULATION
      ATOMS IN THE SMALL CELL ON TOP

 LABEL AT.NO.      COORDINATES (ANGSTROM)
     1    12     0.0000     0.0000     0.0000
     2     8     2.0395     2.0395     2.0395
     3    12    -2.0395     0.0000    -2.0395
     4    12    -4.0790    -2.0395    -2.0395
     5    12     0.0000    -2.0395    -2.0395
     6    12    -2.0395    -4.0790    -2.0395
     7    12    -2.0395    -2.0395    -4.0790
     8    12    -4.0790    -4.0790    -4.0790
     9    12    -2.0395    -2.0395     0.0000
    10     8     0.0000     0.0000     2.0395
    11     8     0.0000     2.0395     0.0000
    12     8    -2.0395     0.0000     0.0000
    13     8     2.0395     0.0000     0.0000
    14     8     0.0000    -2.0395     0.0000
    15     8     0.0000     0.0000    -2.0395
    16     8    -2.0395    -2.0395    -2.0395

 FRQFRQFRQFRQFRQFRQFRQFRQFRQFRQFRQFRQFRQFRQFRQFRQFRQFRQFRQFRQFRQFRQFRQFRQFRQFRQ

                       FREQUENCY CALCULATION

 INFORMATION **** INPFREQ ****  DISPERSION CALCULATION

 GCALCO - MAX INDICES DIRECT LATTICE VECTOR    14    14    14
 NO.OF VECTORS CREATED 6999 STARS  105 RMAX   115.36591 BOHR

 GEOMETRY FOR WAVE FUNCTION - DIMENSIONALITY OF THE SYSTEM    3
 (NON PERIODIC DIRECTION: LATTICE PARAMETER FORMALLY SET TO 500)
 *******************************************************************************
 LATTICE PARAMETERS (ANGSTROMS AND DEGREES) - BOHR = 0.5291772083 ANGSTROM
 PRIMITIVE CELL - CENTRING CODE 1/0 VOLUME=   135.735612 - DENSITY  3.913 g/cm^3
         A              B              C           ALPHA      BETA       GAMMA 
     5.76858904     5.76858904     5.76858904    60.000000  60.000000  60.000000
 *******************************************************************************
 ATOMS IN THE ASYMMETRIC UNIT    5 - ATOMS IN THE UNIT CELL:   16
     ATOM              X/A                 Y/B                 Z/C    
 *******************************************************************************
   1 T  12 MG    0.000000000000E+00  0.000000000000E+00  0.000000000000E+00
   2 T   8 O     2.500000000000E-01  2.500000000000E-01  2.500000000000E-01
   3 T  12 MG    0.000000000000E+00  5.000000000000E-01  0.000000000000E+00
   4 F  12 MG    0.000000000000E+00  5.000000000000E-01  5.000000000000E-01
   5 F  12 MG    5.000000000000E-01  0.000000000000E+00  0.000000000000E+00
   6 F  12 MG    5.000000000000E-01  0.000000000000E+00  5.000000000000E-01
   7 F  12 MG    5.000000000000E-01  5.000000000000E-01  0.000000000000E+00
   8 T  12 MG    5.000000000000E-01  5.000000000000E-01  5.000000000000E-01
   9 F  12 MG    0.000000000000E+00  0.000000000000E+00  5.000000000000E-01
  10 T   8 O     2.500000000000E-01  2.500000000000E-01 -2.500000000000E-01
  11 F   8 O     2.500000000000E-01 -2.500000000000E-01  2.500000000000E-01
  12 F   8 O     2.500000000000E-01 -2.500000000000E-01 -2.500000000000E-01
  13 F   8 O    -2.500000000000E-01  2.500000000000E-01  2.500000000000E-01
  14 F   8 O    -2.500000000000E-01  2.500000000000E-01 -2.500000000000E-01
  15 F   8 O    -2.500000000000E-01 -2.500000000000E-01  2.500000000000E-01
  16 F   8 O    -2.500000000000E-01 -2.500000000000E-01 -2.500000000000E-01

 T = ATOM BELONGING TO THE ASYMMETRIC UNIT

 ****  48 SYMMOPS - TRANSLATORS IN FRACTIONAL UNITS
  V INV                   ROTATION MATRICES                       TRANSLATOR
  1  1  1.00  0.00  0.00  0.00  1.00  0.00  0.00  0.00  1.00    0.00  0.00  0.00
  2  2  0.00  1.00  0.00  1.00  0.00  0.00 -1.00 -1.00 -1.00    0.00  0.00  0.00
  3  3 -1.00 -1.00 -1.00  0.00  0.00  1.00  0.00  1.00  0.00    0.00  0.00  0.00
  4  4  0.00  0.00  1.00 -1.00 -1.00 -1.00  1.00  0.00  0.00    0.00  0.00  0.00
  5  6  0.00  0.00  1.00  1.00  0.00  0.00  0.00  1.00  0.00    0.00  0.00  0.00
  6  5  0.00  1.00  0.00  0.00  0.00  1.00  1.00  0.00  0.00    0.00  0.00  0.00
  7  8  1.00  0.00  0.00  0.00  0.00  1.00 -1.00 -1.00 -1.00    0.00  0.00  0.00
  8  7  1.00  0.00  0.00 -1.00 -1.00 -1.00  0.00  1.00  0.00    0.00  0.00  0.00
  9 10 -1.00 -1.00 -1.00  0.00  1.00  0.00  1.00  0.00  0.00    0.00  0.00  0.00
 10  9  0.00  0.00  1.00  0.00  1.00  0.00 -1.00 -1.00 -1.00    0.00  0.00  0.00
 11 12  0.00  1.00  0.00 -1.00 -1.00 -1.00  0.00  0.00  1.00    0.00  0.00  0.00
 12 11 -1.00 -1.00 -1.00  1.00  0.00  0.00  0.00  0.00  1.00    0.00  0.00  0.00
 13 13  0.00 -1.00  0.00 -1.00  0.00  0.00  0.00  0.00 -1.00    0.00  0.00  0.00
 14 14 -1.00  0.00  0.00  0.00 -1.00  0.00  1.00  1.00  1.00    0.00  0.00  0.00
 15 16  0.00  0.00 -1.00  1.00  1.00  1.00  0.00 -1.00  0.00    0.00  0.00  0.00
 16 15  1.00  1.00  1.00  0.00  0.00 -1.00 -1.00  0.00  0.00    0.00  0.00  0.00
 17 17 -1.00  0.00  0.00  0.00  0.00 -1.00  0.00 -1.00  0.00    0.00  0.00  0.00
 18 18  0.00  0.00 -1.00  0.00 -1.00  0.00 -1.00  0.00  0.00    0.00  0.00  0.00
 19 21  0.00  0.00 -1.00 -1.00  0.00  0.00  1.00  1.00  1.00    0.00  0.00  0.00
 20 22  1.00  1.00  1.00 -1.00  0.00  0.00  0.00 -1.00  0.00    0.00  0.00  0.00
 21 19  0.00 -1.00  0.00  1.00  1.00  1.00 -1.00  0.00  0.00    0.00  0.00  0.00
 22 20  0.00 -1.00  0.00  0.00  0.00 -1.00  1.00  1.00  1.00    0.00  0.00  0.00
 23 23  1.00  1.00  1.00  0.00 -1.00  0.00  0.00  0.00 -1.00    0.00  0.00  0.00
 24 24 -1.00  0.00  0.00  1.00  1.00  1.00  0.00  0.00 -1.00    0.00  0.00  0.00
 25 25 -1.00  0.00  0.00  0.00 -1.00  0.00  0.00  0.00 -1.00    0.00  0.00  0.00
 26 26  0.00 -1.00  0.00 -1.00  0.00  0.00  1.00  1.00  1.00    0.00  0.00  0.00
 27 27  1.00  1.00  1.00  0.00  0.00 -1.00  0.00 -1.00  0.00    0.00  0.00  0.00
 28 28  0.00  0.00 -1.00  1.00  1.00  1.00 -1.00  0.00  0.00    0.00  0.00  0.00
 29 30  0.00  0.00 -1.00 -1.00  0.00  0.00  0.00 -1.00  0.00    0.00  0.00  0.00
 30 29  0.00 -1.00  0.00  0.00  0.00 -1.00 -1.00  0.00  0.00    0.00  0.00  0.00
 31 32 -1.00  0.00  0.00  0.00  0.00 -1.00  1.00  1.00  1.00    0.00  0.00  0.00
 32 31 -1.00  0.00  0.00  1.00  1.00  1.00  0.00 -1.00  0.00    0.00  0.00  0.00
 33 34  1.00  1.00  1.00  0.00 -1.00  0.00 -1.00  0.00  0.00    0.00  0.00  0.00
 34 33  0.00  0.00 -1.00  0.00 -1.00  0.00  1.00  1.00  1.00    0.00  0.00  0.00
 35 36  0.00 -1.00  0.00  1.00  1.00  1.00  0.00  0.00 -1.00    0.00  0.00  0.00
 36 35  1.00  1.00  1.00 -1.00  0.00  0.00  0.00  0.00 -1.00    0.00  0.00  0.00
 37 37  0.00  1.00  0.00  1.00  0.00  0.00  0.00  0.00  1.00    0.00  0.00  0.00
 38 38  1.00  0.00  0.00  0.00  1.00  0.00 -1.00 -1.00 -1.00    0.00  0.00  0.00
 39 40  0.00  0.00  1.00 -1.00 -1.00 -1.00  0.00  1.00  0.00    0.00  0.00  0.00
 40 39 -1.00 -1.00 -1.00  0.00  0.00  1.00  1.00  0.00  0.00    0.00  0.00  0.00
 41 41  1.00  0.00  0.00  0.00  0.00  1.00  0.00  1.00  0.00    0.00  0.00  0.00
 42 42  0.00  0.00  1.00  0.00  1.00  0.00  1.00  0.00  0.00    0.00  0.00  0.00
 43 45  0.00  0.00  1.00  1.00  0.00  0.00 -1.00 -1.00 -1.00    0.00  0.00  0.00
 44 46 -1.00 -1.00 -1.00  1.00  0.00  0.00  0.00  1.00  0.00    0.00  0.00  0.00
 45 43  0.00  1.00  0.00 -1.00 -1.00 -1.00  1.00  0.00  0.00    0.00  0.00  0.00
 46 44  0.00  1.00  0.00  0.00  0.00  1.00 -1.00 -1.00 -1.00    0.00  0.00  0.00
 47 47 -1.00 -1.00 -1.00  0.00  1.00  0.00  0.00  0.00  1.00    0.00  0.00  0.00
 48 48  1.00  0.00  0.00 -1.00 -1.00 -1.00  0.00  0.00  1.00    0.00  0.00  0.00

 DIRECT LATTICE VECTORS CARTESIAN COMPONENTS (ANGSTROM)
          X                    Y                    Z
   0.000000000000E+00   0.407900843000E+01   0.407900843000E+01
   0.407900843000E+01   0.000000000000E+00   0.407900843000E+01
   0.407900843000E+01   0.407900843000E+01   0.000000000000E+00


 CARTESIAN COORDINATES - PRIMITIVE CELL
 *******************************************************************************
 *      ATOM          X(ANGSTROM)         Y(ANGSTROM)         Z(ANGSTROM)
 *******************************************************************************
   1    12 MG    0.000000000000E+00  0.000000000000E+00  0.000000000000E+00
   2     8 O     2.039504215000E+00  2.039504215000E+00  2.039504215000E+00
   3    12 MG    2.039504215000E+00  0.000000000000E+00  2.039504215000E+00
   4    12 MG    4.079008430000E+00  2.039504215000E+00  2.039504215000E+00
   5    12 MG    0.000000000000E+00  2.039504215000E+00  2.039504215000E+00
   6    12 MG    2.039504215000E+00  4.079008430000E+00  2.039504215000E+00
   7    12 MG    2.039504215000E+00  2.039504215000E+00  4.079008430000E+00
   8    12 MG    4.079008430000E+00  4.079008430000E+00  4.079008430000E+00
   9    12 MG    2.039504215000E+00  2.039504215000E+00  0.000000000000E+00
  10     8 O     0.000000000000E+00  0.000000000000E+00  2.039504215000E+00
  11     8 O     0.000000000000E+00  2.039504215000E+00  0.000000000000E+00
  12     8 O    -2.039504215000E+00 -3.525028324569E-16 -4.700037766092E-16
  13     8 O     2.039504215000E+00  0.000000000000E+00  0.000000000000E+00
  14     8 O     0.000000000000E+00 -2.039504215000E+00  4.700037766092E-16
  15     8 O     0.000000000000E+00  4.700037766092E-16 -2.039504215000E+00
  16     8 O    -2.039504215000E+00 -2.039504215000E+00 -2.039504215000E+00

 *******************************************************************************
 LOCAL ATOMIC FUNCTIONS BASIS SET
 *******************************************************************************
   ATOM  X(AU)  Y(AU)  Z(AU)    NO. TYPE  EXPONENT  S COEF   P COEF   D/F/G COEF
 *******************************************************************************
   1 MG  0.000  0.000  0.000
                                  1 S  
                                         6.837E+04 2.226E-04 0.000E+00 0.000E+00
                                         9.699E+03 1.898E-03 0.000E+00 0.000E+00
                                         2.041E+03 1.105E-02 0.000E+00 0.000E+00
                                         5.299E+02 5.006E-02 0.000E+00 0.000E+00
                                         1.592E+02 1.691E-01 0.000E+00 0.000E+00
                                         5.468E+01 3.670E-01 0.000E+00 0.000E+00
                                         2.124E+01 4.004E-01 0.000E+00 0.000E+00
                                         8.746E+00 1.499E-01 0.000E+00 0.000E+00
                             2-   5 SP 
                                         1.568E+02-6.240E-03 7.720E-03 0.000E+00
                                         3.103E+01-7.882E-02 6.427E-02 0.000E+00
                                         9.645E+00-7.992E-02 2.104E-01 0.000E+00
                                         3.711E+00 2.906E-01 3.431E-01 0.000E+00
                                         1.612E+00 5.716E-01 3.735E-01 0.000E+00
                                         6.429E-01 3.066E-01 2.329E-01 0.000E+00
                             6-   9 SP 
                                         5.000E-01 1.000E+00 1.000E+00 0.000E+00
   2 O   3.854  3.854  3.854
                                 10 S  
                                         4.000E+03 1.440E-03 0.000E+00 0.000E+00
                                         1.356E+03 7.640E-03 0.000E+00 0.000E+00
                                         2.485E+02 5.370E-02 0.000E+00 0.000E+00
                                         6.953E+01 1.682E-01 0.000E+00 0.000E+00
                                         2.389E+01 3.604E-01 0.000E+00 0.000E+00
                                         9.276E+00 3.861E-01 0.000E+00 0.000E+00
                                         3.820E+00 1.471E-01 0.000E+00 0.000E+00
                                         1.235E+00 7.105E-02 0.000E+00 0.000E+00
                            11-  14 SP 
                                         5.219E+01-8.730E-03 9.220E-03 0.000E+00
                                         1.033E+01-8.979E-02 7.068E-02 0.000E+00
                                         3.210E+00-4.079E-02 2.043E-01 0.000E+00
                                         1.235E+00 3.767E-01 3.496E-01 0.000E+00
                                         5.364E-01 4.225E-01 2.777E-01 0.000E+00
                            15-  18 SP 
                                         2.600E-01 1.000E+00 1.000E+00 0.000E+00
   3 MG  3.854  0.000  3.854
   4 MG  7.708  3.854  3.854
   5 MG  0.000  3.854  3.854
   6 MG  3.854  7.708  3.854
   7 MG  3.854  3.854  7.708
   8 MG  7.708  7.708  7.708
   9 MG  3.854  3.854  0.000
  10 O   0.000  0.000  3.854
  11 O   0.000  3.854  0.000
  12 O  -3.854  0.000  0.000
  13 O   3.854  0.000  0.000
  14 O   0.000 -3.854  0.000
  15 O   0.000  0.000 -3.854
  16 O  -3.854 -3.854 -3.854
 INFORMATION **** READM2 **** FULL DIRECT SCF (MONO AND BIEL INT) SELECTED
 INFORMATION **** EXCHGENE **** EXCHANGE ENERGY EVALUATION REQUESTED
 WARNING **** RDDFTP **** TOO LOOSE INTEGRATION GRID; PROBABLY NOT ENOUGH ACCURACY IN FREQCALC
 INFORMATION **** TOLINTEG **** COULOMB AND EXCHANGE SERIES TOLERANCES MODIFIED
 INFORMATION **** LEVSHIFT **** LEVEL SHIFTER ACTIVE
 INFORMATION **** TOLDEE **** SCF TOL ON TOTAL ENERGY SET TO           9
 WARNING **** READM2 **** PROBABLE LOSS IN FREQCALC ACCURACY; SCF TOL LT          10
 *******************************************************************************
 N. OF ATOMS PER CELL       16  COULOMB OVERLAP TOL         (T1) 10** -6
 NUMBER OF SHELLS           48  COULOMB PENETRATION TOL     (T2) 10** -6
 NUMBER OF AO              144  EXCHANGE OVERLAP TOL        (T3) 10** 20
 N. OF ELECTRONS PER CELL  160  EXCHANGE PSEUDO OVP (F(G))  (T4) 10** 20
 CORE ELECTRONS PER CELL    96  EXCHANGE PSEUDO OVP (P(G))  (T5) 10** 20
 N. OF SYMMETRY OPERATORS   48  POLE ORDER IN MONO ZONE                4
 *******************************************************************************
 TYPE OF CALCULATION :  RESTRICTED CLOSED SHELL
 KOHN-SHAM HAMILTONIAN

 (EXCHANGE)[CORRELATION] FUNCTIONAL:(DIRAC-SLATER LDA)[VOSKO-WILK-NUSAIR]

 EIGENVALUE LEVEL SHIFTING OF  0.600 HARTREE
 LOCKING - FERMI ENERGY ALTERED BY LEVEL SHIFTER

 CAPPA:IS1  6;IS2  6;IS3  6; K PTS MONK NET   16; SYMMOPS: K SPACE 48;G SPACE 48

 *******************************************************************************
 MAX NUMBER OF SCF CYCLES      50  CONVERGENCE ON DELTAP        10**-19
 WEIGHT OF F(I) IN F(I+1)      35% CONVERGENCE ON ENERGY        10**- 9
 EIGENVALUE LEVEL SHIFTING OF  0.600 HARTREE
 LOCKING - FERMI ENERGY ALTERED BY LEVEL SHIFTER
 SHRINK. FACT.(MONKH.)    6  6  6  NUMBER OF K POINTS IN THE IBZ     16
 SHRINKING FACTOR(GILAT NET)    6  NUMBER OF K POINTS(GILAT NET)     16
 *******************************************************************************
 *** K POINTS COORDINATES (OBLIQUE COORDINATES IN UNITS OF IS =  6)
   1-R(  0  0  0)   2-C(  1  0  0)   3-C(  2  0  0)   4-R(  3  0  0)
   5-C(  1  1  0)   6-C(  2  1  0)   7-C(  3  1  0)   8-C(  4  1  0)
   9-C(  5  1  0)  10-C(  2  2  0)  11-C(  3  2  0)  12-C(  4  2  0)
  13-R(  3  3  0)  14-C(  3  2  1)  15-C(  4  2  1)  16-C(  4  3  1)

 DIRECT LATTICE VECTORS COMPON. (A.U.)     RECIP. LATTICE VECTORS COMPON. (A.U.) 
        X            Y            Z              X            Y            Z
    0.0000000    7.7082088    7.7082088     -0.4075645    0.4075645    0.4075645
    7.7082088    0.0000000    7.7082088      0.4075645   -0.4075645    0.4075645
    7.7082088    7.7082088    0.0000000      0.4075645    0.4075645   -0.4075645

 DISK SPACE FOR EIGENVECTORS (FTN 10)     601344 REALS

 SYMMETRY ADAPTION OF THE BLOCH FUNCTIONS ENABLED

 DIMENSIONS  P(G)=   43408 F(G)=   21776 P(G),F(G) (IRR)    1549
 MAX G-VECTOR INDEX FOR 1- AND 2-ELECTRON INTEGRALS  83

 TTTTTTTTTTTTTTTTTTTTTTTTTTTTTT INPUT       TELAPSE        0.08 TCPU        0.04

 NEIGHBORS OF THE NON-EQUIVALENT ATOMS

 N = NUMBER OF NEIGHBORS AT DISTANCE R
    ATOM  N     R/ANG      R/AU   NEIGHBORS (ATOM LABELS AND CELL INDICES)
   1 MG   6     2.0395     3.8541  10 O    0 0 0  11 O    0 0 0  12 O    0 0 0
                                   13 O    0 0 0  14 O    0 0 0  15 O    0 0 0
   1 MG  12     2.8843     5.4505   3 MG   0 0 0   3 MG   0-1 0   4 MG   0-1 0
                                    4 MG   0 0-1   5 MG   0 0 0   5 MG  -1 0 0
                                    6 MG   0 0-1   6 MG  -1 0 0   7 MG  -1 0 0
                                    7 MG   0-1 0   9 MG   0 0 0   9 MG   0 0-1
   1 MG   8     3.5325     6.6755   2 O    0 0 0   2 O   -1 0 0   2 O    0-1 0
                                    2 O    0 0-1  16 O    0 0 0  16 O    1 0 0
                                   16 O    0 1 0  16 O    0 0 1
   1 MG  24     4.5605     8.6180  10 O   -1 0 0  10 O   -1 0 1  10 O    0-1 0
                                   10 O    0-1 1  11 O    0 0-1  11 O    0 1-1
                                   11 O   -1 0 0  11 O   -1 1 0  12 O    0 1 0
                                   12 O   -1 1 0  12 O    0 0 1  12 O   -1 0 1
                                   13 O    0-1 0  13 O    1-1 0  13 O    0 0-1
                                   13 O    1 0-1  14 O    0 0 1  14 O    0-1 1
                                   14 O    1 0 0  14 O    1-1 0  15 O    1 0 0
                                   15 O    1 0-1  15 O    0 1 0  15 O    0 1-1

   2 O    6     2.0395     3.8541   3 MG   0 0 0   4 MG   0 0 0   5 MG   0 0 0
                                    6 MG   0 0 0   7 MG   0 0 0   9 MG   0 0 0
   2 O   12     2.8843     5.4505  10 O    0 0 0  10 O    0 0 1  11 O    0 0 0
                                   11 O    0 1 0  12 O    0 0 1  12 O    0 1 0
                                   13 O    0 0 0  13 O    1 0 0  14 O    0 0 1
                                   14 O    1 0 0  15 O    1 0 0  15 O    0 1 0
   2 O    8     3.5325     6.6755   1 MG   0 0 0   1 MG   1 0 0   1 MG   0 1 0
                                    1 MG   0 0 1   8 MG   0 0 0   8 MG  -1 0 0
                                    8 MG   0-1 0   8 MG   0 0-1
   2 O    6     4.0790     7.7082  16 O    1 0 0  16 O    0 1 0  16 O    0 0 1
                                   16 O    1 1 0  16 O    1 0 1  16 O    0 1 1
   2 O   24     4.5605     8.6180   3 MG   1 0 0   3 MG   1-1 0   3 MG   0-1 1
                                    3 MG   0 0 1   4 MG   1-1 0   4 MG   1 0-1
                                    4 MG   0 0-1   4 MG   0-1 0   5 MG   0 0 1
                                    5 MG  -1 0 1   5 MG  -1 1 0   5 MG   0 1 0
                                    6 MG   0 1-1   6 MG  -1 1 0   6 MG  -1 0 0
                                    6 MG   0 0-1   7 MG  -1 0 1   7 MG   0-1 1
                                    7 MG   0-1 0   7 MG  -1 0 0   9 MG   0 1 0
                                    9 MG   0 1-1   9 MG   1 0-1   9 MG   1 0 0
   2 O   24     4.9957     9.4406  10 O    1 0 0  10 O   -1 0 1  10 O    0 1 0
                                   10 O    0-1 1  11 O    0 0 1  11 O    0 1-1
                                   11 O    1 0 0  11 O   -1 1 0  12 O    1 0 0
                                   12 O   -1 1 1  12 O    0 0 0  12 O    0 1 1
                                   13 O    0 1 0  13 O    1-1 0  13 O    0 0 1
                                   13 O    1 0-1  14 O    0 0 0  14 O    1 0 1
                                   14 O    0 1 0  14 O    1-1 1  15 O    0 0 0
                                   15 O    1 1 0  15 O    0 0 1  15 O    1 1-1

   3 MG   6     2.0395     3.8541   2 O    0 0 0  10 O    0 0 0  12 O    0 1 0
                                   13 O    0 0 0  15 O    0 1 0  16 O    0 1 0
   3 MG  12     2.8843     5.4505   1 MG   0 0 0   1 MG   0 1 0   4 MG   0 0 0
                                    4 MG   0 0-1   5 MG   0 0 0   5 MG  -1 1 0
                                    7 MG   0 0 0   7 MG  -1 0 0   8 MG   0 0-1
                                    8 MG  -1 0 0   9 MG   0 0 0   9 MG   0 1-1
   3 MG   8     3.5325     6.6755  11 O    0 1-1  11 O    0 0 0  11 O    0 1 0
                                   11 O   -1 1 0  14 O    0 0 1  14 O    0 0 0
                                   14 O    0 1 0  14 O    1 0 0
   3 MG  24     4.5605     8.6180   2 O   -1 0 0   2 O   -1 1 0   2 O    0 1-1
                                    2 O    0 0-1  10 O   -1 0 1  10 O   -1 1 0
                                   10 O    0 1 0  10 O    0 0 1  12 O   -1 1 1
                                   12 O    0 0 1  12 O    0 0 0  12 O   -1 1 0
                                   13 O    1 0-1  13 O    1 0 0  13 O    0 1 0
                                   13 O    0 1-1  15 O    1 1-1  15 O    0 1-1
                                   15 O    0 0 0  15 O    1 0 0  16 O    0 1 1
                                   16 O    0 0 1  16 O    1 0 0  16 O    1 1 0

   8 MG   6     2.0395     3.8541  10 O    0 0 1  11 O    0 1 0  12 O    0 1 1
                                   13 O    1 0 0  14 O    1 0 1  15 O    1 1 0
   8 MG  12     2.8843     5.4505   3 MG   0 0 1   3 MG   1 0 0   4 MG   0 0 0
                                    4 MG   1 0 0   5 MG   0 1 0   5 MG   0 0 1
                                    6 MG   0 0 0   6 MG   0 1 0   7 MG   0 0 0
                                    7 MG   0 0 1   9 MG   1 0 0   9 MG   0 1 0
   8 MG   8     3.5325     6.6755   2 O    0 0 0   2 O    1 0 0   2 O    0 1 0
                                    2 O    0 0 1  16 O    1 1 1  16 O    1 0 1
                                   16 O    0 1 1  16 O    1 1 0
   8 MG  24     4.5605     8.6180  10 O    1 0 0  10 O    0 1 0  10 O    1 0 1
                                   10 O    0 1 1  11 O    0 0 1  11 O    1 0 0
                                   11 O    0 1 1  11 O    1 1 0  12 O    1 0 1
                                   12 O    0 0 1  12 O    1 1 0  12 O    0 1 0
                                   13 O    0 1 0  13 O    0 0 1  13 O    1 1 0
                                   13 O    1 0 1  14 O    0 0 1  14 O    0 1 1
                                   14 O    1 0 0  14 O    1 1 0  15 O    1 0 0
                                   15 O    1 0 1  15 O    0 1 0  15 O    0 1 1

  10 O    6     2.0395     3.8541   1 MG   0 0 0   3 MG   0 0 0   4 MG   0 0-1
                                    5 MG   0 0 0   6 MG   0 0-1   8 MG   0 0-1
  10 O   12     2.8843     5.4505   2 O    0 0 0   2 O    0 0-1  11 O    0 0 0
                                   11 O    0 1-1  12 O    0 0 0  12 O    0 1 0
                                   13 O    0 0 0  13 O    1 0-1  14 O    0 0 0
                                   14 O    1 0 0  16 O    1 0 0  16 O    0 1 0
  10 O    8     3.5325     6.6755   7 MG   0 0 0   7 MG  -1 0 0   7 MG   0-1 0
                                    7 MG   0 0-1   9 MG   0 1-1   9 MG   0 0-1
                                    9 MG   0 0 0   9 MG   1 0-1
  10 O    6     4.0790     7.7082  15 O    0 0 0  15 O    0 1-1  15 O    1 0-1
                                   15 O    1 0 0  15 O    0 1 0  15 O    1 1-1
  10 O   24     4.5605     8.6180   1 MG   1 0 0   1 MG   1 0-1   1 MG   0 1 0
                                    1 MG   0 1-1   3 MG   1 0-1   3 MG   1-1 0
                                    3 MG   0-1 0   3 MG   0 0-1   4 MG   1 0-1
                                    4 MG   0 0 0   4 MG   0-1 0   4 MG   1-1-1
                                    5 MG   0 1-1   5 MG   0 0-1   5 MG  -1 0 0
                                    5 MG  -1 1 0   6 MG   0 1-1   6 MG  -1 1-1
                                    6 MG  -1 0 0   6 MG   0 0 0   8 MG  -1 0 0
                                    8 MG   0-1 0   8 MG  -1 0-1   8 MG   0-1-1
  10 O   24     4.9957     9.4406   2 O   -1 0 0   2 O    1 0-1   2 O    0-1 0
                                    2 O    0 1-1  11 O    1 0-1  11 O   -1 1 0
                                   11 O    0 1 0  11 O    0 0-1  12 O   -1 1 0
                                   12 O    1 0 0  12 O    0 0 1  12 O    0 1-1
                                   13 O    1-1 0  13 O    0 1-1  13 O    0 0-1
                                   13 O    1 0 0  14 O    0 1 0  14 O    1-1 0
                                   14 O    1 0-1  14 O    0 0 1  16 O    0 0 0
                                   16 O    1 1 0  16 O    0 0 1  16 O    1 1-1


 SYMMETRY ALLOWED INTERNAL DEGREE(S) OF FREEDOM:   1
 TTTTTTTTTTTTTTTTTTTTTTTTTTTTTT SYMM        TELAPSE        0.08 TCPU        0.04
 TTTTTTTTTTTTTTTTTTTTTTTTTTTTTT INT_SCREEN  TELAPSE        0.09 TCPU        0.04

 *******************************************************************************
 *                                                                             *
 *                                                                             *
 *         FFFFF  RRRR   EEEE   EEE   U   U  EEEE  N   N   CCC  Y   Y          *
 *         F      R   R  E     E   E  U   U  E     NN  N  C      Y Y           *
 *         FFF    RRRR   EEEE  E   E  U   U  EEEE  N N N  C       Y            *
 *         F      R   R  E     E  EE  U   U  E     N  NN  C       Y            *
 *         F      R   R  EEEE   EE E   UUU   EEEE  N   N   CCC    Y            *
 *                                                                             *
 *                                                                             *
 * CALCULATION OF PHONON FREQUENCIES AT A SET OF K POINTS BY USING A SUPERCELL *
 * SCHEME. THE FOLLOWING SUPERCELL HAS BEEN USED:                              *
 *     2.000     0.000     0.000                                               *
 *     0.000     2.000     0.000                                               *
 *     0.000     0.000     2.000                                               *
 * THAT PERMITS THE CALCULATION OF MODES AT     8 K POINTS                     *
 *                                                                             *
 * REFERENCES TO BE QUOTED WHEN USING THIS MODULE:                             *
 *                                                                             *
 * F. Pascale, C.M. Zicovich-Wilson, F. Lopez, B. Civalleri                    *
 * R. Orlando, R. Dovesi                                                       *
 * The calculation of the vibration frequencies of crystalline                 *
 * compounds and its implementation in the CRYSTAL code                        *
 * J. Comput. Chem. 25 (2004) 888-897                                          *
 *                                                                             *
 * C.M. Zicovich-Wilson, F. Pascale, C. Roetti, V.R. Saunders,                 *
 * R. Orlando, R. Dovesi                                                       *
 * The calculation of the vibration frequencies of alpha-quartz:               *
 * the effect of hamiltonian and basis set                                     *
 * J. Comput. Chem. 25 (2004) 1873-1881                                        *
 *******************************************************************************



 ATOMS ISOTOPIC MASS (AMU) FOR FREQUENCY CALCULATION 

    1 MG     23.9850    2 O      15.9949    3 MG     23.9850    4 MG     23.9850
    5 MG     23.9850    6 MG     23.9850    7 MG     23.9850    8 MG     23.9850
    9 MG     23.9850   10 O      15.9949   11 O      15.9949   12 O      15.9949
   13 O      15.9949   14 O      15.9949   15 O      15.9949   16 O      15.9949

 STEP SIZE                  0.0030 ANGSTROM
 * CALCULATION OF PHONON FREQUENCIES AT A SET OF K BY USING A SUPERCELL        *
 * SCHEME. THE FOLLOWING SUPERCELL HAS BEEN USED:                              *
 *     2.000     0.000     0.000                                               *
 *     0.000     2.000     0.000                                               *
 *     0.000     0.000     2.000                                               *
 * THAT PERMITS THE CALCULATION OF MODES AT     8 K POINTS                     *
 *                                                                             *
 * LIST OF THE K POINTS COMPATIBLE WITH THE SELECTED SUPERCELL                 *
 * IN THESE K POINTS THE DYNAMICAL MATRIX IS DIAGONALIZED                      *
 * AND THE RESULTING FREQUENCIES ARE USED FOR THERMODYNAMICS                   *
 *  K       WEIGHT       COORD                                                 *
 *  1         1.        0  0  0                                                *
 *  2         4.        0  0  1                                                *
 *  3         3.        0  1  1                                                *
 * WITH SHRINKING FACTORS: IS1 =  2 IS2 =  2 IS3 =  2                          *
 * AND RECIPROCAL LATTICE VECTORS:                                             *
 *      -1.5403708    1.5403708    1.5403708                                   *
 *       1.5403708   -1.5403708    1.5403708                                   *
 *       1.5403708    1.5403708   -1.5403708                                   *
 *******************************************************************************

 INFORMATION CONCERNING THE SCF+GRADIENT CALCULATIONS REQUIRED FOR
 GENERATING FREQUENCIES. IN PRINCIPLE 3N+1 SCF + GRADIENT
 CALCULATIONS  ARE REQUIRED;
 FOR EACH OF THEM THE REMAINING POINT SYMMETRY IS INDICATED.
 POINT SYMMETRY PERMITS TO GENERATE GRADIENTS FOR DISPLACEMENT B 
 STARTING FROM THE GRADIENT GENERATED BY DISPLACEMENT A.

   N   LABEL SYMBOL DISPLACEMENT     SYM. 

   1     EQUILIBRIUM GEOMETRY         48

   2      1   MG           DX            8
   3      1   MG           DY        GENERATED FROM LINE X WITH OP  6
   4      1   MG           DZ        GENERATED FROM LINE X WITH OP  5
   5      2   O            DX            4
   6      2   O            DY        GENERATED FROM LINE X WITH OP  6
   7      2   O            DZ        GENERATED FROM LINE X WITH OP  5
 USE OF RESIDUAL SYMMETRY AFTER DISPLACEMENT

 NUMERICAL GRADIENT COMPUTED WITH A SINGLE DISPLACEMENT (+dx) FOR EACH
 CARTESIAN COORDINATE WITH RESPECT TO THE EQUILIBRIUM CONFIGURATION
 dx=  0.003
 NUMBER OF IRREDUCIBLE ATOMS                     2
 NUMBER OF SCF+GRADIENT CALCULATIONS             3

  ATOM  SYMOP  ORDER
    1     48      6
    2     24      4

 ATOM  : IRREDUCIBLE ATOM
 SYMOP : NUMBER OF SYMMETRY OPERATORS THAT DOESN'T MOVE THE IRREDUCIBLE ATOM
 ORDER : MAXIMUM ORDER AMONG THE OPERATORS OF THE IRREDUCIBLE ATOM

 *******************************************************************************


 GCALCO - MAX INDICES DIRECT LATTICE VECTOR    14    14    14
 NO.OF VECTORS CREATED 6999 STARS  105 RMAX   115.36591 BOHR

 CAPPA:IS1  6;IS2  6;IS3  6; K PTS MONK NET   16; SYMMOPS: K SPACE 48;G SPACE 48


 DIMENSIONS  P(G)=   43408 F(G)=   21776 P(G),F(G) (IRR)    1549
 MAX G-VECTOR INDEX FOR 1- AND 2-ELECTRON INTEGRALS  83

 TTTTTTTTTTTTTTTTTTTTTTTTTTTTTT INPUT       TELAPSE        0.10 TCPU        0.06

 SYMMETRY ALLOWED INTERNAL DEGREE(S) OF FREEDOM:   1
 TTTTTTTTTTTTTTTTTTTTTTTTTTTTTT SYMM        TELAPSE        0.10 TCPU        0.06
 TTTTTTTTTTTTTTTTTTTTTTTTTTTTTT INT_SCREEN  TELAPSE        0.10 TCPU        0.06
 INFORMATION **** EXCBUF **** EXCH. BIPO BUFFER: WORDS USED =           0

 DFT PARAMETERS

     ATOM       ELECTRONS   NET CHARGE   R(ANGSTROM)
   1  12  MG     10.0000      2.0000     0.72000000
   2   8  O      10.0000     -2.0000     1.40000000

 SIZE OF GRID=       4944
 TTTTTTTTTTTTTTTTTTTTTTTTTTTTTT MAKE_GRID2  TELAPSE        4.09 TCPU        4.05
 BECKE WEIGHT FUNCTION
 RADSAFE =     2.00
 TOLERANCES - DENSITY:10**- 6; POTENTIAL:10**- 9; GRID WGT:10**-14

 RADIAL INTEGRATION  - INTERVALS (POINTS,UPPER LIMIT):            1( 75,  4.0*R)

 ANGULAR INTEGRATION - INTERVALS (ACCURACY LEVEL [N. POINTS] UPPER LIMIT):
  1(  2[  50]   0.2)  2(  6[ 146]   0.5)  3(  8[ 194]   0.9)  4( 13[ 434]   3.5)
  5(  8[ 194]9999.0)
 TTTTTTTTTTTTTTTTTTTTTTTTTTTTTT INT_CALC    TELAPSE        4.12 TCPU        4.08

 *******************************************************************************
 TEST11 - MGO BULK                                                               
 CRYSTAL - SCF - TYPE OF CALCULATION :  RESTRICTED CLOSED SHELL
 *******************************************************************************

 CAPPA:IS1  6;IS2  6;IS3  6; K PTS MONK NET   16; SYMMOPS: K SPACE 48;G SPACE 48

 TTTTTTTTTTTTTTTTTTTTTTTTTTTTTT SDIK        TELAPSE        4.16 TCPU        4.12

 AAAAAAAAAAAAAAAAAAAAAAAAAAAAAAAAAAAAAAAAAAAAAAAAAAAAAAAAAAAAAAAAAAAAAAAAAAAAAAA
         ATOMIC WAVEFUNCTION(S)


 NUCLEAR CHARGE 12.0  SYMMETRY SPECIES            S    P
 N. ELECTRONS   10.0  NUMBER OF PRIMITIVE GTOS   15    7
                      NUMBER OF CONTRACTED GTOS   3    2
                      NUMBER OF CLOSED SHELLS     2    1
                      OPEN SHELL OCCUPATION       0    0

  ZNUC SCFIT  TOTAL HF ENERGY   KINETIC ENERGY   VIRIAL THEOREM ACCURACY
  12.0   5   -1.988200510E+02  1.987516331E+02 -2.000344238E+00  3.3E-06

 NUCLEAR CHARGE  8.0  SYMMETRY SPECIES            S    P
 N. ELECTRONS   10.0  NUMBER OF PRIMITIVE GTOS   14    6
                      NUMBER OF CONTRACTED GTOS   3    2
                      NUMBER OF CLOSED SHELLS     2    1
                      OPEN SHELL OCCUPATION       0    0

  ZNUC SCFIT  TOTAL HF ENERGY   KINETIC ENERGY   VIRIAL THEOREM ACCURACY
   8.0  21   -7.417598088E+01  7.485740048E+01 -1.990897098E+00  3.9E-06

 AAAAAAAAAAAAAAAAAAAAAAAAAAAAAAAAAAAAAAAAAAAAAAAAAAAAAAAAAAAAAAAAAAAAAAAAAAAAAAA

 TTTTTTTTTTTTTTTTTTTTTTTTTTTTTT MOQGAD      TELAPSE        4.23 TCPU        4.19
 TTTTTTTTTTTTTTTTTTTTTTTTTTTTTT SHELLX      TELAPSE        5.15 TCPU        5.11
 TTTTTTTTTTTTTTTTTTTTTTTTTTTTTT MONMO3      TELAPSE        5.57 TCPU        5.40
 NUMERICALLY INTEGRATED DENSITY    159.9997336027
 TTTTTTTTTTTTTTTTTTTTTTTTTTTTTT NUMDFT      TELAPSE        5.77 TCPU        5.60
 CYC   0 ETOT(AU) -2.193662239731E+03 DETOT -2.19E+03 tst  0.00E+00 PX  1.00E+00
 TTTTTTTTTTTTTTTTTTTTTTTTTTTTTT FDIK        TELAPSE        6.06 TCPU        5.90
 INSULATING STATE - LEVEL SHIFTER    0.60 au
 TOP OF VALENCE BANDS -    BAND     80; K    1; EIG -1.1562049E-01 AU
 BOTTOM OF VIRTUAL BANDS - BAND     81; K    1; EIG  2.9585967E-01 AU
 TTTTTTTTTTTTTTTTTTTTTTTTTTTTTT PDIG        TELAPSE        6.16 TCPU        5.99
 TTTTTTTTTTTTTTTTTTTTTTTTTTTTTT MOQGAD      TELAPSE        6.22 TCPU        6.06
 TTTTTTTTTTTTTTTTTTTTTTTTTTTTTT SHELLX      TELAPSE        7.19 TCPU        7.02
 TTTTTTTTTTTTTTTTTTTTTTTTTTTTTT MONMO3      TELAPSE        7.49 TCPU        7.32
 NUMERICALLY INTEGRATED DENSITY    159.9994029495
 TTTTTTTTTTTTTTTTTTTTTTTTTTTTTT NUMDFT      TELAPSE        7.85 TCPU        7.68
 CYC   1 ETOT(AU) -2.191898537073E+03 DETOT  1.76E+00 tst  0.00E+00 PX  1.00E+00
 TTTTTTTTTTTTTTTTTTTTTTTTTTTTTT FDIK        TELAPSE        7.93 TCPU        7.77
 INSULATING STATE - LEVEL SHIFTER    0.60 au
 TOP OF VALENCE BANDS -    BAND     80; K    1; EIG -6.4824134E-01 AU
 BOTTOM OF VIRTUAL BANDS - BAND     81; K    1; EIG  3.3570642E-01 AU
 TTTTTTTTTTTTTTTTTTTTTTTTTTTTTT PDIG        TELAPSE        8.04 TCPU        7.87
 TTTTTTTTTTTTTTTTTTTTTTTTTTTTTT MOQGAD      TELAPSE        8.10 TCPU        7.94
 TTTTTTTTTTTTTTTTTTTTTTTTTTTTTT SHELLX      TELAPSE        9.07 TCPU        8.90
 TTTTTTTTTTTTTTTTTTTTTTTTTTTTTT MONMO3      TELAPSE        9.36 TCPU        9.20
 NUMERICALLY INTEGRATED DENSITY    159.9993893568
 TTTTTTTTTTTTTTTTTTTTTTTTTTTTTT NUMDFT      TELAPSE        9.73 TCPU        9.56
 CYC   2 ETOT(AU) -2.191981597363E+03 DETOT -8.31E-02 tst  1.98E-03 PX  6.76E-02
 TTTTTTTTTTTTTTTTTTTTTTTTTTTTTT FDIK        TELAPSE        9.81 TCPU        9.65
 INSULATING STATE - LEVEL SHIFTER    0.60 au
 TOP OF VALENCE BANDS -    BAND     80; K    1; EIG -6.6969030E-01 AU
 BOTTOM OF VIRTUAL BANDS - BAND     81; K    1; EIG  3.2354167E-01 AU
 TTTTTTTTTTTTTTTTTTTTTTTTTTTTTT PDIG        TELAPSE        9.91 TCPU        9.75
 TTTTTTTTTTTTTTTTTTTTTTTTTTTTTT MOQGAD      TELAPSE        9.97 TCPU        9.81
 TTTTTTTTTTTTTTTTTTTTTTTTTTTTTT SHELLX      TELAPSE       10.94 TCPU       10.78
 TTTTTTTTTTTTTTTTTTTTTTTTTTTTTT MONMO3      TELAPSE       11.24 TCPU       11.08
 NUMERICALLY INTEGRATED DENSITY    159.9993794058
 TTTTTTTTTTTTTTTTTTTTTTTTTTTTTT NUMDFT      TELAPSE       11.60 TCPU       11.44
 CYC   3 ETOT(AU) -2.191980928695E+03 DETOT  6.69E-04 tst  3.86E-05 PX  4.31E-03
 TTTTTTTTTTTTTTTTTTTTTTTTTTTTTT FDIK        TELAPSE       11.68 TCPU       11.52
 INSULATING STATE - LEVEL SHIFTER    0.60 au
 TOP OF VALENCE BANDS -    BAND     80; K    1; EIG -6.8010387E-01 AU
 BOTTOM OF VIRTUAL BANDS - BAND     81; K    1; EIG  3.1732239E-01 AU
 TTTTTTTTTTTTTTTTTTTTTTTTTTTTTT PDIG        TELAPSE       11.79 TCPU       11.62
 TTTTTTTTTTTTTTTTTTTTTTTTTTTTTT MOQGAD      TELAPSE       11.85 TCPU       11.69
 TTTTTTTTTTTTTTTTTTTTTTTTTTTTTT SHELLX      TELAPSE       12.82 TCPU       12.66
 TTTTTTTTTTTTTTTTTTTTTTTTTTTTTT MONMO3      TELAPSE       13.12 TCPU       12.95
 NUMERICALLY INTEGRATED DENSITY    159.9993798655
 TTTTTTTTTTTTTTTTTTTTTTTTTTTTTT NUMDFT      TELAPSE       13.48 TCPU       13.32
 CYC   4 ETOT(AU) -2.191982386416E+03 DETOT -1.46E-03 tst  2.43E-05 PX  1.11E-02
 TTTTTTTTTTTTTTTTTTTTTTTTTTTTTT FDIK        TELAPSE       13.57 TCPU       13.40
 INSULATING STATE - LEVEL SHIFTER    0.60 au
 TOP OF VALENCE BANDS -    BAND     80; K    1; EIG -6.7846730E-01 AU
 BOTTOM OF VIRTUAL BANDS - BAND     81; K    1; EIG  3.1829651E-01 AU
 TTTTTTTTTTTTTTTTTTTTTTTTTTTTTT PDIG        TELAPSE       13.67 TCPU       13.50
 TTTTTTTTTTTTTTTTTTTTTTTTTTTTTT MOQGAD      TELAPSE       13.73 TCPU       13.57
 TTTTTTTTTTTTTTTTTTTTTTTTTTTTTT SHELLX      TELAPSE       14.70 TCPU       14.54
 TTTTTTTTTTTTTTTTTTTTTTTTTTTTTT MONMO3      TELAPSE       15.00 TCPU       14.83
 NUMERICALLY INTEGRATED DENSITY    159.9993811463
 TTTTTTTTTTTTTTTTTTTTTTTTTTTTTT NUMDFT      TELAPSE       15.36 TCPU       15.20
 CYC   5 ETOT(AU) -2.191982368642E+03 DETOT  1.78E-05 tst  5.80E-07 PX  1.10E-03
 TTTTTTTTTTTTTTTTTTTTTTTTTTTTTT FDIK        TELAPSE       15.44 TCPU       15.28
 INSULATING STATE - LEVEL SHIFTER    0.60 au
 TOP OF VALENCE BANDS -    BAND     80; K    1; EIG -6.7720316E-01 AU
 BOTTOM OF VIRTUAL BANDS - BAND     81; K    1; EIG  3.1905231E-01 AU
 TTTTTTTTTTTTTTTTTTTTTTTTTTTTTT PDIG        TELAPSE       15.54 TCPU       15.38
 TTTTTTTTTTTTTTTTTTTTTTTTTTTTTT MOQGAD      TELAPSE       15.60 TCPU       15.44
 TTTTTTTTTTTTTTTTTTTTTTTTTTTTTT SHELLX      TELAPSE       16.57 TCPU       16.41
 TTTTTTTTTTTTTTTTTTTTTTTTTTTTTT MONMO3      TELAPSE       16.87 TCPU       16.71
 NUMERICALLY INTEGRATED DENSITY    159.9993812107
 TTTTTTTTTTTTTTTTTTTTTTTTTTTTTT NUMDFT      TELAPSE       17.23 TCPU       17.07
 CYC   6 ETOT(AU) -2.191982388775E+03 DETOT -2.01E-05 tst  5.30E-07 PX  9.91E-04
 TTTTTTTTTTTTTTTTTTTTTTTTTTTTTT FDIK        TELAPSE       17.31 TCPU       17.15
 INSULATING STATE - LEVEL SHIFTER    0.60 au
 TOP OF VALENCE BANDS -    BAND     80; K    1; EIG -6.7738491E-01 AU
 BOTTOM OF VIRTUAL BANDS - BAND     81; K    1; EIG  3.1894311E-01 AU
 TTTTTTTTTTTTTTTTTTTTTTTTTTTTTT PDIG        TELAPSE       17.42 TCPU       17.25
 TTTTTTTTTTTTTTTTTTTTTTTTTTTTTT MOQGAD      TELAPSE       17.48 TCPU       17.32
 TTTTTTTTTTTTTTTTTTTTTTTTTTTTTT SHELLX      TELAPSE       18.45 TCPU       18.29
 TTTTTTTTTTTTTTTTTTTTTTTTTTTTTT MONMO3      TELAPSE       18.75 TCPU       18.58
 NUMERICALLY INTEGRATED DENSITY    159.9993810936
 TTTTTTTTTTTTTTTTTTTTTTTTTTTTTT NUMDFT      TELAPSE       19.11 TCPU       18.95
 CYC   7 ETOT(AU) -2.191982388656E+03 DETOT  1.19E-07 tst  1.14E-07 PX  1.98E-04
 TTTTTTTTTTTTTTTTTTTTTTTTTTTTTT FDIK        TELAPSE       19.19 TCPU       19.03
 INSULATING STATE - LEVEL SHIFTER    0.60 au
 TOP OF VALENCE BANDS -    BAND     80; K    1; EIG -6.7757824E-01 AU
 BOTTOM OF VIRTUAL BANDS - BAND     81; K    1; EIG  3.1882483E-01 AU
 TTTTTTTTTTTTTTTTTTTTTTTTTTTTTT PDIG        TELAPSE       19.30 TCPU       19.13
 TTTTTTTTTTTTTTTTTTTTTTTTTTTTTT MOQGAD      TELAPSE       19.36 TCPU       19.20
 TTTTTTTTTTTTTTTTTTTTTTTTTTTTTT SHELLX      TELAPSE       20.33 TCPU       20.17
 TTTTTTTTTTTTTTTTTTTTTTTTTTTTTT MONMO3      TELAPSE       20.62 TCPU       20.46
 NUMERICALLY INTEGRATED DENSITY    159.9993811005
 TTTTTTTTTTTTTTTTTTTTTTTTTTTTTT NUMDFT      TELAPSE       20.99 TCPU       20.83
 CYC   8 ETOT(AU) -2.191982389197E+03 DETOT -5.41E-07 tst  2.00E-08 PX  1.71E-04
 TTTTTTTTTTTTTTTTTTTTTTTTTTTTTT FDIK        TELAPSE       21.07 TCPU       20.91
 INSULATING STATE - LEVEL SHIFTER    0.60 au
 TOP OF VALENCE BANDS -    BAND     80; K    1; EIG -6.7757866E-01 AU
 BOTTOM OF VIRTUAL BANDS - BAND     81; K    1; EIG  3.1882291E-01 AU
 TTTTTTTTTTTTTTTTTTTTTTTTTTTTTT PDIG        TELAPSE       21.17 TCPU       21.01
 TTTTTTTTTTTTTTTTTTTTTTTTTTTTTT MOQGAD      TELAPSE       21.24 TCPU       21.07
 TTTTTTTTTTTTTTTTTTTTTTTTTTTTTT SHELLX      TELAPSE       22.20 TCPU       22.04
 TTTTTTTTTTTTTTTTTTTTTTTTTTTTTT MONMO3      TELAPSE       22.50 TCPU       22.34
 NUMERICALLY INTEGRATED DENSITY    159.9993811273
 TTTTTTTTTTTTTTTTTTTTTTTTTTTTTT NUMDFT      TELAPSE       22.86 TCPU       22.70
 CYC   9 ETOT(AU) -2.191982389222E+03 DETOT -2.48E-08 tst  7.13E-09 PX  4.33E-05
 TTTTTTTTTTTTTTTTTTTTTTTTTTTTTT FDIK        TELAPSE       22.94 TCPU       22.78
 INSULATING STATE - LEVEL SHIFTER    0.60 au
 TOP OF VALENCE BANDS -    BAND     80; K    1; EIG -6.7755920E-01 AU
 BOTTOM OF VIRTUAL BANDS - BAND     81; K    1; EIG  3.1883401E-01 AU
 TTTTTTTTTTTTTTTTTTTTTTTTTTTTTT PDIG        TELAPSE       23.05 TCPU       22.88
 TTTTTTTTTTTTTTTTTTTTTTTTTTTTTT MOQGAD      TELAPSE       23.11 TCPU       22.95
 TTTTTTTTTTTTTTTTTTTTTTTTTTTTTT SHELLX      TELAPSE       24.08 TCPU       23.91
 TTTTTTTTTTTTTTTTTTTTTTTTTTTTTT MONMO3      TELAPSE       24.37 TCPU       24.21
 NUMERICALLY INTEGRATED DENSITY    159.9993811329
 TTTTTTTTTTTTTTTTTTTTTTTTTTTTTT NUMDFT      TELAPSE       24.74 TCPU       24.58
 CYC  10 ETOT(AU) -2.191982389199E+03 DETOT  2.23E-08 tst  3.00E-09 PX  1.16E-05
 TTTTTTTTTTTTTTTTTTTTTTTTTTTTTT FDIK        TELAPSE       24.82 TCPU       24.65
 INSULATING STATE - LEVEL SHIFTER    0.60 au
 TOP OF VALENCE BANDS -    BAND     80; K    1; EIG -6.7755983E-01 AU
 BOTTOM OF VIRTUAL BANDS - BAND     81; K    1; EIG  3.1883345E-01 AU
 TTTTTTTTTTTTTTTTTTTTTTTTTTTTTT PDIG        TELAPSE       24.92 TCPU       24.76
 TTTTTTTTTTTTTTTTTTTTTTTTTTTTTT MOQGAD      TELAPSE       24.99 TCPU       24.82
 TTTTTTTTTTTTTTTTTTTTTTTTTTTTTT SHELLX      TELAPSE       25.95 TCPU       25.79
 TTTTTTTTTTTTTTTTTTTTTTTTTTTTTT MONMO3      TELAPSE       26.25 TCPU       26.09
 NUMERICALLY INTEGRATED DENSITY    159.9993811317
 TTTTTTTTTTTTTTTTTTTTTTTTTTTTTT NUMDFT      TELAPSE       26.61 TCPU       26.45
 CYC  11 ETOT(AU) -2.191982389193E+03 DETOT  6.31E-09 tst  1.04E-09 PX  4.79E-06
 TTTTTTTTTTTTTTTTTTTTTTTTTTTTTT FDIK        TELAPSE       26.69 TCPU       26.53
 INSULATING STATE - LEVEL SHIFTER    0.60 au
 TOP OF VALENCE BANDS -    BAND     80; K    1; EIG -6.7756314E-01 AU
 BOTTOM OF VIRTUAL BANDS - BAND     81; K    1; EIG  3.1883135E-01 AU
 TTTTTTTTTTTTTTTTTTTTTTTTTTTTTT PDIG        TELAPSE       26.80 TCPU       26.63
 TTTTTTTTTTTTTTTTTTTTTTTTTTTTTT MOQGAD      TELAPSE       26.86 TCPU       26.70
 TTTTTTTTTTTTTTTTTTTTTTTTTTTTTT SHELLX      TELAPSE       27.83 TCPU       27.67
 TTTTTTTTTTTTTTTTTTTTTTTTTTTTTT MONMO3      TELAPSE       28.12 TCPU       27.96
 NUMERICALLY INTEGRATED DENSITY    159.9993811318
 TTTTTTTTTTTTTTTTTTTTTTTTTTTTTT NUMDFT      TELAPSE       28.49 TCPU       28.33
 CYC  12 ETOT(AU) -2.191982389194E+03 DETOT -1.02E-09 tst  3.32E-10 PX  3.31E-06
 TTTTTTTTTTTTTTTTTTTTTTTTTTTTTT FDIK        TELAPSE       28.57 TCPU       28.41
 INSULATING STATE - LEVEL SHIFTER    0.60 au
 TOP OF VALENCE BANDS -    BAND     80; K    1; EIG -6.7756366E-01 AU
 BOTTOM OF VIRTUAL BANDS - BAND     81; K    1; EIG  3.1883098E-01 AU
 TTTTTTTTTTTTTTTTTTTTTTTTTTTTTT PDIG        TELAPSE       28.67 TCPU       28.51
 TTTTTTTTTTTTTTTTTTTTTTTTTTTTTT MOQGAD      TELAPSE       28.74 TCPU       28.57
 TTTTTTTTTTTTTTTTTTTTTTTTTTTTTT SHELLX      TELAPSE       29.71 TCPU       29.54
 TTTTTTTTTTTTTTTTTTTTTTTTTTTTTT MONMO3      TELAPSE       30.00 TCPU       29.84
 NUMERICALLY INTEGRATED DENSITY    159.9993811322
 TTTTTTTTTTTTTTTTTTTTTTTTTTTTTT NUMDFT      TELAPSE       30.37 TCPU       30.20
 CYC  13 ETOT(AU) -2.191982389194E+03 DETOT  1.31E-10 tst  1.13E-10 PX  1.52E-06
 TTTTTTTTTTTTTTTTTTTTTTTTTTTTTT FDIK        TELAPSE       30.44 TCPU       30.28
 INSULATING STATE - LEVEL SHIFTER    0.60 au
 TOP OF VALENCE BANDS -    BAND     80; K    1; EIG -6.7756347E-01 AU
 BOTTOM OF VIRTUAL BANDS - BAND     81; K    1; EIG  3.1883107E-01 AU
 TTTTTTTTTTTTTTTTTTTTTTTTTTTTTT PDIG        TELAPSE       30.55 TCPU       30.39
 TTTTTTTTTTTTTTTTTTTTTTTTTTTTTT MOQGAD      TELAPSE       30.61 TCPU       30.45
 TTTTTTTTTTTTTTTTTTTTTTTTTTTTTT SHELLX      TELAPSE       31.58 TCPU       31.42
 ::: PSEUDO TOTAL   ENERGY                        -2.0007725502630E+03
 ::: VIRIAL COEFFICIENT                            1.0452673791978E+00
 TTTTTTTTTTTTTTTTTTTTTTTTTTTTTT MONMO3      TELAPSE       31.88 TCPU       31.71
 NUMERICALLY INTEGRATED DENSITY    159.9993811323
 TTTTTTTTTTTTTTTTTTTTTTTTTTTTTT NUMDFT      TELAPSE       32.24 TCPU       32.08

     FOCK EXCHANGE ENERGY                          0.0000000000000E+00

 TTTTTTTTTTTTTTTTTTTTTTTTTTTTTT EXCHGENE    TELAPSE       32.24 TCPU       32.08
 CYC  14 ETOT(AU) -2.191982389193E+03 DETOT  7.12E-10 tst  3.99E-11 PX  1.52E-06

 == SCF ENDED - CONVERGENCE ON ENERGY      E(AU) -2.1919823891933E+03 CYCLES  14


 ENERGY EXPRESSION=HARTREE+FOCK EXCH*0.00000+(LDA    EXCH)*1.00000+VWN    CORR


 TOTAL ENERGY(DFT)(AU)( 14) -2.1919823891933E+03 DE 7.1E-10 tester 4.0E-11
 TTTTTTTTTTTTTTTTTTTTTTTTTTTTTT EDFT        TELAPSE       32.24 TCPU       32.08

 *******************************************************************************
 *                             FORCE CALCULATION                               *
 *******************************************************************************

 TTTTTTTTTTTTTTTTTTTTTTTTTTTTTT NUMDFG      TELAPSE       50.64 TCPU       50.48
 INFORMATION **** EXCPOG **** EXCH. BIPO BUFFER LENGTH (WORDS) =           0
 INFORMATION **** GENPOG **** BIPO BUFFER LENGTH (WORDS) =      178400
 TTTTTTTTTTTTTTTTTTTTTTTTTTTTTT SHELXG      TELAPSE       54.42 TCPU       54.26

 CARTESIAN FORCES IN HARTREE/BOHR (ANALYTICAL)
   ATOM                     X                   Y                   Z
   1  12             4.873056008580E-16  1.090044390232E-15  2.353049127913E-15
   2   8             1.294249370335E-15  2.580670618419E-15  1.491853739512E-15
   3  12             9.574377773781E-16 -4.440892098501E-15 -2.487239278626E-15
   4  12             3.552713678801E-15  1.758346106144E-15 -1.929455405927E-16
   5  12            -4.477899532655E-15  4.249542044108E-15  5.775884600776E-15
   6  12            -2.645725199436E-15  4.551914400963E-15 -6.788432704191E-15
   7  12            -1.922086161828E-15 -3.108017245229E-15  2.738550127409E-15
   8  12             6.295731880742E-15  7.536059154497E-15  5.965286228811E-15
   9  12             7.468399670169E-16 -8.015097980695E-16 -3.663735981263E-15
  10   8            -1.513960218570E-15  2.054624722895E-16 -7.440616003696E-10
  11   8            -1.193171642168E-15 -7.440609317049E-10  4.417001423616E-16
  12   8             7.440561128335E-10  1.432152957202E-15  8.715371276218E-15
  13   8            -7.440588820651E-10 -2.256543186329E-15 -1.452448534637E-15
  14   8             3.174222900995E-15  7.440551458162E-10 -3.784662116196E-15
  15   8             2.804515084772E-15 -3.845058275600E-15  7.440553634203E-10
  16   8            -3.892446902978E-15 -4.803515084760E-15 -3.796717239083E-15

 RESULTANT FORCE     8.984950748980E-16 -1.637232252949E-15 -9.214354910406E-16

 SYMMETRY ALLOWED FORCES (ANALYTICAL) (DIRECTION, FORCE)

    1 -1.8225625E-09
 TTTTTTTTTTTTTTTTTTTTTTTTTTTTTT TOTGRA      TELAPSE       55.32 TCPU       55.16

 HHHHHHHHHHHHHHHHHHHHHHHHHHHHHHHHHHHHHHHHHHHHHHHHHHHHHHHHHHHHHHHHHHHHHHHHHHHHHHH
                   FORCE CONSTANT MATRIX - NUMERICAL ESTIMATE
 HHHHHHHHHHHHHHHHHHHHHHHHHHHHHHHHHHHHHHHHHHHHHHHHHHHHHHHHHHHHHHHHHHHHHHHHHHHHHHH
 MAX ABS(DGRAD): MAXIMUM ABSOLUTE GRADIENT DIFFERENCE WITH RESPECT TO
                 THE CENTRAL POINT
 DE:             ENERGY DIFFERENCE WITH RESPECT TO THE CENTRAL POINT
                 (DE IS EXPECTED TO BE POSITIVE FOR ALL DISPLACEMENTS)

   ATOM      MAX ABS(DGRAD)       TOTAL ENERGY (AU)  N.CYC      DE       SYM
    CENTRAL POINT             -2.191982389193E+03    14     0.0000E+00   48
    1 MG DX   1.0987E-03      -2.191982386074E+03     6     3.1189E-06    8
    1 MG DY                   GENERATED FROM A PREVIOUS LINE
    1 MG DZ                   GENERATED FROM A PREVIOUS LINE
    2 O  DX   1.2309E-03      -2.191982385717E+03     6     3.4765E-06    4
    2 O  DY                   GENERATED FROM A PREVIOUS LINE
    2 O  DZ                   GENERATED FROM A PREVIOUS LINE

 GCALCO - MAX INDICES DIRECT LATTICE VECTOR    14    14    14
 NO.OF VECTORS CREATED 6999 STARS  105 RMAX   115.36591 BOHR

 CAPPA:IS1  6;IS2  6;IS3  6; K PTS MONK NET   16; SYMMOPS: K SPACE 48;G SPACE 48


 DIMENSIONS  P(G)=   43408 F(G)=   21776 P(G),F(G) (IRR)    1549
 MAX G-VECTOR INDEX FOR 1- AND 2-ELECTRON INTEGRALS  83

 TTTTTTTTTTTTTTTTTTTTTTTTTTTTTT INPUT       TELAPSE      464.12 TCPU      463.96

 SYMMETRY ALLOWED INTERNAL DEGREE(S) OF FREEDOM:   1
 TTTTTTTTTTTTTTTTTTTTTTTTTTTTTT SYMM        TELAPSE      464.12 TCPU      463.97
 TTTTTTTTTTTTTTTTTTTTTTTTTTTTTT INT_SCREEN  TELAPSE      464.12 TCPU      463.97

 +++ SYMMETRY ADAPTION OF VIBRATIONAL MODES +++

 SYMMETRY INFORMATION:
 K-LITTLE GROUP: CLASS TABLE, CHARACTER TABLE.
 IRREP-(DIMENSION, NO. IRREDUCIBLE SETS)
 [WARNINGS: (1) ONLY ACTIVE IRREPS ARE GENERATED AND LISTED.
            (2) ONLY RELEVANT CLASSES ARE CONSIDERED IN THE CHARACTER TABLE
            (3) SYMBOLS MAY NOT FULLY COINCIDE WITH THOSE FROM TEXT BOOKS.
 IN CLASSES WRITTEN AS CX.Y OR SX.Y, X.Y IS A DECIMAL NUMBER THAT
 APPROACHES THE OPERATION FRACTIONAL ORDER.]

 (P, D, RP, RD, STAND FOR PAIRING, DOUBLING, REAL PAIRING AND REAL DOUBLING 
 OF THE IRREPS (SEE MANUAL))

 K[   1] (  0  0  0)

 CLASS | GROUP OPERATORS (SEE SYMMOPS KEYWORD)
 ------------------------------------------------------------------------
 C2    |  2; 3; 4;
 C3    |  5;11; 7; 9; 6;12;10; 8;
 C2'   | 13;14;17;18;23;24;
 C4    | 15;16;19;20;21;22;
 I     | 25;
 SGH   | 26;27;28;
 S6    | 29;35;31;33;30;36;34;32;
 SGD   | 37;38;41;42;47;48;
 S4    | 39;40;43;44;45;46;

 IRREP/CLA   E    C2    C3    C2'   C4    I     SGH   S6    SGD   S4   
 --------------------------------------------------------------------
    FU  |  3.00 -1.00  0.00 -1.00  1.00 -3.00  1.00  0.00  1.00 -1.00
 

 FU -(3,   2);

 K[   2] (  0  0  1)

 CLASS | GROUP OPERATORS (COMPLEX PHASE IN DEGREES)
 ------------------------------------------------------------------------
   2   | 11(   0.0);12(   0.0);
   3   | 13(   0.0);23(   0.0);24(   0.0);
   4   | 25(   0.0);
   5   | 35(   0.0);36(   0.0);
   6   | 37(   0.0);47(   0.0);48(   0.0);

 IRREP/CLA   1     2     3     4     5     6
 --------------------------------------------
     1  |  1.00  1.00 -1.00 -1.00 -1.00  1.00
     2  |  2.00 -1.00  0.00 -2.00  1.00  0.00
     3  |  1.00  1.00  1.00  1.00  1.00  1.00
     4  |  2.00 -1.00  0.00  2.00 -1.00  0.00
 
 1-(1,   1); 2-(2,   1); 3-(1,   1); 4-(2,   1);

 K[   3] (  0  1  1)

 CLASS | GROUP OPERATORS (COMPLEX PHASE IN DEGREES)
 ------------------------------------------------------------------------
   2   |  2(   0.0); 4(   0.0);
   3   |  3(   0.0);
   4   | 17(   0.0);23(   0.0);
   5   | 19(   0.0);21(   0.0);
   6   | 25(   0.0);
   7   | 26(   0.0);28(   0.0);
   8   | 27(   0.0);
   9   | 41(   0.0);47(   0.0);
  10   | 43(   0.0);45(   0.0);

 IRREP/CLA   1     2     3     4     5     6     7     8     9    10
 --------------------------------------------------------------------
     1  |  1.00 -1.00  1.00 -1.00  1.00 -1.00  1.00 -1.00  1.00 -1.00
     2  |  2.00  0.00 -2.00  0.00  0.00 -2.00  0.00  2.00  0.00  0.00
 
 1-(1,   2); 2-(2,   2);


  DISPERSION K POINT NUMBER  1 COORD:  R(  0  0  0 )    WEIGHT:    1.


 HHHHHHHHHHHHHHHHHHHHHHHHHHHHHHHHHHHHHHHHHHHHHHHHHHHHHHHHHHHHHHHHHHHHHHHHHHHHHH
 EIGENVALUES (EIGV) OF THE MASS WEIGHTED HESSIAN MATRIX AND HARMONIC
 FREQUENCIES. IRREP LABELS REFER TO SYMMETRY REPRESENTATION ANALYSIS;  A AND I
 INDICATE WHETHER THE MODE IS ACTIVE OR INACTIVE, RESPECTIVELY, FOR IR AND
 RAMAN; IR INTENSITIES IN BRACKETS.

 CONVERSION FACTORS FOR FREQUENCIES:
      1 CM**(-1) =   0.2194746E+06 HARTREE
      1 THZ      =   0.2997925E-01 CM**(-1)

 HHHHHHHHHHHHHHHHHHHHHHHHHHHHHHHHHHHHHHHHHHHHHHHHHHHHHHHHHHHHHHHHHHHHHHHHHHHHHH

    MODES         EIGV          FREQUENCIES     IRREP  IR   INTENS    RAMAN
             (HARTREE**2)   (CM**-1)     (THZ)             (KM/MOL)
    1-   3   -0.4094E-14     -0.0140   -0.0004  (FU )   A (     0.00)   I
    4-   6    0.5063E-05    493.8585   14.8055  (FU )   A (     0.00)   I

 NORMAL MODES NORMALIZED TO CLASSICAL AMPLITUDES

 FREQ(CM**-1)     -0.01     -0.01     -0.01    493.86    493.86    493.86

 AT.   1 MG X     0.1582    0.0000    0.0000    0.0000   -0.0638    0.0000
            Y     0.0000    0.1582    0.0000   -0.0638    0.0000    0.0000
            Z     0.0000    0.0000    0.1582    0.0000    0.0000   -0.0638
 AT.   2 O  X     0.1582    0.0000    0.0000    0.0000    0.0956    0.0000
            Y     0.0000    0.1582    0.0000    0.0956    0.0000    0.0000
            Z     0.0000    0.0000    0.1582    0.0000    0.0000    0.0956


  DISPERSION K POINT NUMBER  2 COORD:  R(  0  0  1 )    WEIGHT:    4.

    MODES         EIGV          FREQUENCIES     IRREP
             (HARTREE**2)   (CM**-1)     (THZ)
    1-   2    0.2446E-05    343.2343   10.2899  (  2)
    3-   4    0.4413E-05    461.0372   13.8215  (  4)
    5-   5    0.8936E-05    656.0940   19.6692  (  1)
    6-   6    0.1427E-04    828.9918   24.8525  (  3)

 FREQ(CM**-1)    343.23    343.23    461.04    461.04    656.09    828.99

 AT.   1 MG X    -0.1444   -0.0834    0.0000    0.0000    0.1179    0.0000
            Y     0.1444   -0.0834    0.0000    0.0000    0.1179    0.0000
            Z     0.0000   -0.1667    0.0000    0.0000   -0.1179    0.0000
 AT.   2 O  X     0.0000    0.0000   -0.1768   -0.1021    0.0000    0.1444
            Y     0.0000    0.0000    0.1768   -0.1021    0.0000    0.1444
            Z     0.0000    0.0000    0.0000   -0.2042    0.0000   -0.1444


  DISPERSION K POINT NUMBER  3 COORD:  R(  0  1  1 )    WEIGHT:    3.

    MODES         EIGV          FREQUENCIES     IRREP
             (HARTREE**2)   (CM**-1)     (THZ)
    1-   2    0.3050E-05    383.3100   11.4913  (  2)
    3-   3    0.6849E-05    574.3723   17.2192  (  1)
    4-   5    0.6861E-05    574.8834   17.2346  (  2)
    6-   6    0.1407E-04    823.2020   24.6790  (  1)

 FREQ(CM**-1)    383.31    383.31    574.37    574.88    574.88    823.20

 AT.   1 MG X     0.0000    0.0000    0.1885    0.0000    0.0000    0.0785
            Y     0.1906    0.0000    0.0000   -0.0733    0.0000    0.0000
            Z     0.0000   -0.1906    0.0000    0.0000    0.0733    0.0000
 AT.   2 O  X     0.0000    0.0000   -0.0961    0.0000    0.0000    0.2308
            Y    -0.0897    0.0000    0.0000   -0.2334    0.0000    0.0000
            Z     0.0000    0.0897    0.0000    0.0000    0.2334    0.0000

 TTTTTTTTTTTTTTTTTTTTTTTTTTTTTTTTTTTTTTTTTTTTTTTTTTTTTTTTTTTTTTTTTTTTTTTTTTTTTTT

  THERMODYNAMICAL PROPERTIES ARE CALCULATED AS A SUM OVER  45 MODES



 *******************************************************************************

 VIBRATIONAL TEMPERATURES (in Kelvin) of the MODES at the GAMMA POINT

 TO MODES
   827.1 [   4;]   827.1 [   5;]  1184.4 [   6;]

 *******************************************************************************

 HARMONIC VIBRATIONAL CONTRIBUTIONS TO THERMODYNAMIC FUNCTIONS AT GIVEN
 TEMPERATURE AND PRESSURE:

 (EL = ELECTRONIC ENERGY
  E0 = ZERO-POINT ENERGY
  ET = THERMAL CONTRIBUTION TO THE VIBRATIONAL ENERGY
  PV = PRESSURE * VOLUME
  TS = TEMPERATURE * ENTROPY)

                          AU/CELL             EV/CELL                 KJ/MOL
 EL            :   -2191.982389193264  -59646.873198385925    -5755048.95179343
 E0            :       0.054215775804       1.475286261725         142.34349931


 *******************************************************************************

 THERMODYNAMIC FUNCTIONS WITH VIBRATIONAL CONTRIBUTIONS

 AT (T =  298.15 K, P =   0.10132500E+00 MPA):

                          AU/CELL             EV/CELL                 KJ/MOL
 ET            :       0.010222918199       0.278179746590          26.84026795
 PV            :       0.000003154637       0.000085842048           0.00828250
 TS            :       0.014764317505       0.401757504261          38.76371015
 ET+PV-TS      :      -0.004538244668      -0.123491915623         -11.91515970
 EL+E0+ET+PV-TS:   -2191.932711662128  -59645.521404039828    -5754918.52345381

 OTHER THERMODINAMIC FUNCTIONS:

                      mHARTREE/(CELL*K)     mEV/(CELL*K)              J/(MOL*K)
 ENTROPY       :       0.049519763558       1.347501272048         130.01412090
 HEAT CAPACITY :       0.085929969897       2.338273356419         225.60910417

 *******************************************************************************
 TTTTTTTTTTTTTTTTTTTTTTTTTTTTTT END         TELAPSE      464.14 TCPU      463.99
 EEEEEEEEEE TERMINATION  DATE 07 09 2011 TIME 07:56:04.7
NODE    0 CPU TIME =       463.989
    TOTAL CPU TIME =       463.989
mer set  7 07:56:04 CEST 2011
totale 21676
-rw-r--r-- 1 crystal1 users        0 2011-09-07 07:48 dffit3.dat
-rw-r--r-- 1 crystal1 users      180 2011-09-07 07:48 ERROR
-rw-r--r-- 1 crystal1 users       80 2011-09-07 07:56 fort.10.pe0
-rw-r--r-- 1 crystal1 users    60952 2011-09-07 07:52 fort.11.pe0
-rw-r--r-- 1 crystal1 users    26132 2011-09-07 07:52 fort.12
-rw-r--r-- 1 crystal1 users   347272 2011-09-07 07:49 fort.13
-rw-r--r-- 1 crystal1 users        0 2011-09-07 07:48 fort.18.pe0
-rw-r--r-- 1 crystal1 users      696 2011-09-07 07:56 fort.19.pe0
-rw-r--r-- 1 crystal1 users        0 2011-09-07 07:48 fort.1.pe0
-rw-r--r-- 1 crystal1 users   174316 2011-09-07 07:49 fort.20
lrwxrwxrwx 1 crystal1 users       51 2011-09-07 07:48 fort.33 -> /home/crystal1/matteo/tutorial-mssc2011/mgo-222.xyz
-rw-r--r-- 1 crystal1 users        0 2011-09-07 07:48 fort.38.pe0
-rw-r--r-- 1 crystal1 users        0 2011-09-07 07:48 fort.3.pe0
-rw-r--r-- 1 crystal1 users        0 2011-09-07 07:48 fort.40.pe0
-rw-r--r-- 1 crystal1 users 10874224 2011-09-07 07:52 fort.8.pe0
-rw-r--r-- 1 crystal1 users   174316 2011-09-07 07:49 fort.9
-rw-r--r-- 1 crystal1 users    73768 2011-09-07 07:52 fort.95.pe0
-rw-r--r-- 1 crystal1 users    60952 2011-09-07 07:52 fort.96.pe0
-rw-r--r-- 1 crystal1 users   344499 2011-09-07 07:56 FREQINFO.DAT
-rw-r--r-- 1 crystal1 users     1033 2011-09-07 07:48 INPUT
-rw-r--r-- 1 crystal1 users        6 2011-09-07 07:48 machines.LINUX
lrwxrwxrwx 1 crystal1 users       52 2011-09-07 07:48 OPTAT.LOG -> /home/crystal1/matteo/tutorial-mssc2011/mgo-222.out3
-rwxr-xr-x 1 crystal1 users  9959246 2011-09-07 07:48 Pcrystal
lrwxrwxrwx 1 crystal1 users       52 2011-09-07 07:48 SCFOUT.LOG -> /home/crystal1/matteo/tutorial-mssc2011/mgo-222.out2
