
     Program PWSCF v.5.2.0 starts on  5Oct2015 at 14: 1:36 

     This program is part of the open-source Quantum ESPRESSO suite
     for quantum simulation of materials; please cite
         "P. Giannozzi et al., J. Phys.:Condens. Matter 21 395502 (2009);
          URL http://www.quantum-espresso.org", 
     in publications or presentations arising from this work. More details at
     http://www.quantum-espresso.org/quote

     Parallel version (MPI), running on     2 processors
     K-points division:     npool     =       2
     Reading input from STO.inp

     Current dimensions of program PWSCF are:
     Max number of different atomic species (ntypx) = 10
     Max number of k-points (npk) =  40000
     Max angular momentum in pseudopotentials (lmaxx) =  3

     IMPORTANT: XC functional enforced from input :
     Exchange-correlation      = PBESOL ( 1  4 10  8 0 0)
     Any further DFT definition will be discarded
     Please, verify this is what you really want


     Subspace diagonalization in iterative solution of the eigenvalue problem:
     a serial algorithm will be used


     G-vector sticks info
     --------------------
     sticks:   dense  smooth     PW     G-vecs:    dense   smooth      PW
     Sum         609     609    193                11459    11459    2007



     bravais-lattice index     =            0
     lattice parameter (alat)  =       6.6140  a.u.
     unit-cell volume          =     289.3294 (a.u.)^3
     number of atoms/cell      =            5
     number of atomic types    =            3
     number of electrons       =        40.00
     number of Kohn-Sham states=           20
     kinetic-energy cutoff     =      44.0000  Ry
     charge density cutoff     =     176.0000  Ry
     convergence threshold     =      1.0E-07
     mixing beta               =       0.8000
     number of iterations used =            8  plain     mixing
     Exchange-correlation      = PBESOL ( 1  4 10  8 0 0)
     nstep                     =          500


     celldm(1)=   6.614000  celldm(2)=   0.000000  celldm(3)=   0.000000
     celldm(4)=   0.000000  celldm(5)=   0.000000  celldm(6)=   0.000000

     crystal axes: (cart. coord. in units of alat)
               a(1) = (   1.000000   0.000000   0.000000 )  
               a(2) = (   0.000000   1.000000   0.000000 )  
               a(3) = (   0.000000   0.000000   1.000000 )  

     reciprocal axes: (cart. coord. in units 2 pi/alat)
               b(1) = (  1.000000  0.000000  0.000000 )  
               b(2) = (  0.000000  1.000000  0.000000 )  
               b(3) = (  0.000000  0.000000  1.000000 )  


     PseudoPot. # 1 for Sr read from file:
     ../../pseudo/Sr.pbesol-spn-rrkjus_psl.1.0.0.UPF
     MD5 check sum: 75715fe6d3c8d996864f4ed512eac87f
     Pseudo is Ultrasoft + core correction, Zval = 10.0
     Generated using "atomic" code by A. Dal Corso  v.5.1
     Using radial grid of 1221 points,  6 beta functions with: 
                l(1) =   0
                l(2) =   0
                l(3) =   1
                l(4) =   1
                l(5) =   2
                l(6) =   2
     Q(r) pseudized with 0 coefficients 


     PseudoPot. # 2 for Ti read from file:
     ../../pseudo/ti_pbesol_v1.4.uspp.F.UPF
     MD5 check sum: ebdc10ccce51265d8c030443845e563a
     Pseudo is Ultrasoft + core correction, Zval = 12.0
     Generated by new atomic code, or converted to UPF format
     Using radial grid of  851 points,  6 beta functions with: 
                l(1) =   0
                l(2) =   0
                l(3) =   1
                l(4) =   1
                l(5) =   2
                l(6) =   2
     Q(r) pseudized with  6 coefficients,  rinner =    1.000   1.000   1.000
                                                       1.000   1.000

     PseudoPot. # 3 for O  read from file:
     ../../pseudo/o_pbesol_v1.2.uspp.F.UPF
     MD5 check sum: 501638753501ef6325af9037351f7734
     Pseudo is Ultrasoft + core correction, Zval =  6.0
     Generated by new atomic code, or converted to UPF format
     Using radial grid of  737 points,  5 beta functions with: 
                l(1) =   0
                l(2) =   0
                l(3) =   1
                l(4) =   1
                l(5) =   2
     Q(r) pseudized with  8 coefficients,  rinner =    0.900   0.900   0.900
                                                       0.900   0.900

     atomic species   valence    mass     pseudopotential
        Sr            10.00    87.62000     Sr( 1.00)
        Ti            12.00    47.88000     Ti( 1.00)
        O              6.00    15.99940     O ( 1.00)

     48 Sym. Ops., with inversion, found



   Cartesian axes

     site n.     atom                  positions (alat units)
         1           Sr  tau(   1) = (   0.0000000   0.0000000   0.0000000  )
         2           Ti  tau(   2) = (   0.5000000   0.5000000   0.5000000  )
         3           O   tau(   3) = (   0.5000000   0.5000000   0.0000000  )
         4           O   tau(   4) = (   0.5000000   0.0000000   0.5000000  )
         5           O   tau(   5) = (   0.0000000   0.5000000   0.5000000  )

     number of k points=    20
                       cart. coord. in units 2pi/alat
        k(    1) = (   0.0000000   0.0000000   0.0000000), wk =   0.0092593
        k(    2) = (   0.0000000   0.0000000   0.1666667), wk =   0.0555556
        k(    3) = (   0.0000000   0.0000000   0.3333333), wk =   0.0555556
        k(    4) = (   0.0000000   0.0000000  -0.5000000), wk =   0.0277778
        k(    5) = (   0.0000000   0.1666667   0.1666667), wk =   0.1111111
        k(    6) = (   0.0000000   0.1666667   0.3333333), wk =   0.2222222
        k(    7) = (   0.0000000   0.1666667  -0.5000000), wk =   0.1111111
        k(    8) = (   0.0000000   0.3333333   0.3333333), wk =   0.1111111
        k(    9) = (   0.0000000   0.3333333  -0.5000000), wk =   0.1111111
        k(   10) = (   0.0000000  -0.5000000  -0.5000000), wk =   0.0277778
        k(   11) = (   0.1666667   0.1666667   0.1666667), wk =   0.0740741
        k(   12) = (   0.1666667   0.1666667   0.3333333), wk =   0.2222222
        k(   13) = (   0.1666667   0.1666667  -0.5000000), wk =   0.1111111
        k(   14) = (   0.1666667   0.3333333   0.3333333), wk =   0.2222222
        k(   15) = (   0.1666667   0.3333333  -0.5000000), wk =   0.2222222
        k(   16) = (   0.1666667  -0.5000000  -0.5000000), wk =   0.0555556
        k(   17) = (   0.3333333   0.3333333   0.3333333), wk =   0.0740741
        k(   18) = (   0.3333333   0.3333333  -0.5000000), wk =   0.1111111
        k(   19) = (   0.3333333  -0.5000000  -0.5000000), wk =   0.0555556
        k(   20) = (  -0.5000000  -0.5000000  -0.5000000), wk =   0.0092593

     Dense  grid:    11459 G-vectors     FFT dimensions: (  27,  27,  27)

     Largest allocated arrays     est. size (Mb)     dimensions
        Kohn-Sham Wavefunctions         0.45 Mb     (    1472,   20)
        NL pseudopotentials             1.68 Mb     (    1472,   75)
        Each V/rho on FFT grid          0.30 Mb     (   19683)
        Each G-vector array             0.09 Mb     (   11459)
        G-vector shells                 0.09 Mb     (   11459)
     Largest temporary arrays     est. size (Mb)     dimensions
        Auxiliary wavefunctions         1.80 Mb     (    1472,   80)
        Each subspace H/S matrix        0.10 Mb     (      80,   80)
        Each <psi_i|beta_j> matrix      0.02 Mb     (      75,   20)
        Arrays for rho mixing           2.40 Mb     (   19683,    8)

     Check: negative/imaginary core charge=   -0.000016    0.000000

     Initial potential from superposition of free atoms

     starting charge   38.99288, renormalised to   40.00000
     Starting wfc are   30 randomized atomic wfcs

     total cpu time spent up to now is        5.7 secs

     per-process dynamical memory:    48.7 Mb

     Self-consistent Calculation

     iteration #  1     ecut=    44.00 Ry     beta=0.80
     Davidson diagonalization with overlap
     ethr =  1.00E-02,  avg # of iterations =  2.0

     total cpu time spent up to now is        7.0 secs

     total energy              =    -285.83540196 Ry
     Harris-Foulkes estimate   =    -286.52108440 Ry
     estimated scf accuracy    <       0.83644777 Ry

     iteration #  2     ecut=    44.00 Ry     beta=0.80
     Davidson diagonalization with overlap
     ethr =  2.09E-03,  avg # of iterations =  4.1

     total cpu time spent up to now is        9.1 secs

     total energy              =    -285.56860009 Ry
     Harris-Foulkes estimate   =    -286.87072212 Ry
     estimated scf accuracy    <       3.16991104 Ry

     iteration #  3     ecut=    44.00 Ry     beta=0.80
     Davidson diagonalization with overlap
     ethr =  2.09E-03,  avg # of iterations =  3.3

     total cpu time spent up to now is       10.7 secs

     total energy              =    -286.26157863 Ry
     Harris-Foulkes estimate   =    -286.32409670 Ry
     estimated scf accuracy    <       0.13876626 Ry

     iteration #  4     ecut=    44.00 Ry     beta=0.80
     Davidson diagonalization with overlap
     ethr =  3.47E-04,  avg # of iterations =  2.9

     total cpu time spent up to now is       12.3 secs

     total energy              =    -286.27472588 Ry
     Harris-Foulkes estimate   =    -286.28048051 Ry
     estimated scf accuracy    <       0.01362070 Ry

     iteration #  5     ecut=    44.00 Ry     beta=0.80
     Davidson diagonalization with overlap
     ethr =  3.41E-05,  avg # of iterations =  3.2

     total cpu time spent up to now is       13.8 secs

     total energy              =    -286.27859605 Ry
     Harris-Foulkes estimate   =    -286.27867342 Ry
     estimated scf accuracy    <       0.00030236 Ry

     iteration #  6     ecut=    44.00 Ry     beta=0.80
     Davidson diagonalization with overlap
     ethr =  7.56E-07,  avg # of iterations =  2.3

     total cpu time spent up to now is       15.2 secs

     total energy              =    -286.27860480 Ry
     Harris-Foulkes estimate   =    -286.27863584 Ry
     estimated scf accuracy    <       0.00008202 Ry

     iteration #  7     ecut=    44.00 Ry     beta=0.80
     Davidson diagonalization with overlap
     ethr =  2.05E-07,  avg # of iterations =  3.0

     total cpu time spent up to now is       16.6 secs

     total energy              =    -286.27862061 Ry
     Harris-Foulkes estimate   =    -286.27862082 Ry
     estimated scf accuracy    <       0.00000039 Ry

     iteration #  8     ecut=    44.00 Ry     beta=0.80
     Davidson diagonalization with overlap
     ethr =  9.68E-10,  avg # of iterations =  3.6

     total cpu time spent up to now is       18.5 secs

     total energy              =    -286.27862087 Ry
     Harris-Foulkes estimate   =    -286.27862099 Ry
     estimated scf accuracy    <       0.00000032 Ry

     iteration #  9     ecut=    44.00 Ry     beta=0.80
     Davidson diagonalization with overlap
     ethr =  7.94E-10,  avg # of iterations =  2.9

     total cpu time spent up to now is       19.9 secs

     End of self-consistent calculation

          k = 0.0000 0.0000 0.0000 (  1365 PWs)   bands (ev):

   -39.4696 -16.5091 -16.1855 -16.1855 -16.1855  -3.0628  -2.1038  -2.1038
     1.3377   1.3377   1.3377  12.6431  12.6431  12.6431  13.4690  13.4690
    13.4690  15.4735  15.4735  15.4735

          k = 0.0000 0.0000 0.1667 (  1414 PWs)   bands (ev):

   -39.4679 -16.6230 -16.1808 -16.1808 -16.1162  -3.2230  -2.0769  -1.8982
     1.3733   1.3733   1.7311  12.0927  12.4604  12.4604  12.9631  12.9631
    13.0409  14.3132  15.2814  15.2814

          k = 0.0000 0.0000 0.3333 (  1426 PWs)   bands (ev):

   -39.4644 -16.8052 -16.1714 -16.1714 -16.0169  -3.6998  -2.0220  -1.1092
     1.4463   1.4463   2.4045  10.7455  12.0068  12.0068  12.3167  12.3167
    12.3351  12.7778  15.0953  15.0953

          k = 0.0000 0.0000-0.5000 (  1422 PWs)   bands (ev):

   -39.4625 -16.8864 -16.1667 -16.1667 -15.9740  -3.9327  -1.9940  -0.6116
     1.4836   1.4836   2.7085   9.9352  11.7463  11.7463  12.0313  12.1041
    12.1041  12.2408  15.0359  15.0359

          k = 0.0000 0.1667 0.1667 (  1418 PWs)   bands (ev):

   -39.4662 -16.6498 -16.2639 -16.1762 -16.0525  -3.1916  -1.9874  -1.9079
     1.4150   1.5204   1.9015  11.4974  12.1069  12.2757  12.3280  12.5478
    13.5046  14.0899  14.5220  15.0255

          k = 0.0000 0.1667 0.3333 (  1414 PWs)   bands (ev):

   -39.4627 -16.7545 -16.2754 -16.1671 -16.0222  -3.4510  -1.9035  -1.3387
     1.5007   1.6574   2.3222  10.5184  11.0567  11.8011  11.8124  11.9840
    12.8774  13.7287  14.2434  14.7911

          k = 0.0000 0.1667-0.5000 (  1430 PWs)   bands (ev):

   -39.4609 -16.8196 -16.2511 -16.1625 -16.0216  -3.6331  -1.8511  -0.9382
     1.5448   1.7312   2.5229   9.8988  10.4458  11.5321  11.7825  11.7886
    12.4704  13.7993  14.0283  14.7238

          k = 0.0000 0.3333 0.3333 (  1424 PWs)   bands (ev):

   -39.4592 -16.6576 -16.4167 -16.1584 -16.0887  -3.0535  -1.7743  -1.4635
     1.6139   1.9843   2.2434   9.5911  10.7196  10.8050  11.3724  11.4155
    12.9908  13.5221  14.4935  14.7168

          k = 0.0000 0.3333-0.5000 (  1430 PWs)   bands (ev):

   -39.4576 -16.6464 -16.4132 -16.1559 -16.1540  -2.9621  -1.6429  -1.4581
     1.6728   2.1226   2.2893   9.1851   9.8582  10.7563  11.1209  11.2025
    13.2137  13.4585  14.4090  14.8772

          k = 0.0000-0.5000-0.5000 (  1452 PWs)   bands (ev):

   -39.4559 -16.4912 -16.4912 -16.2917 -16.1498  -2.5155  -1.6805  -1.6805
     1.7398   2.2966   2.2966   8.7090   9.7626   9.9560  10.9268  10.9268
    13.5805  13.5805  14.3187  15.1978

          k = 0.1667 0.1667 0.1667 (  1436 PWs)   bands (ev):

   -39.4644 -16.6482 -16.2587 -16.2587 -16.0223  -3.0570  -1.9202  -1.9202
     1.4452   1.4452   2.1463  10.9186  11.8739  11.8739  12.2778  12.2778
    13.8283  13.8879  14.3650  14.3650

          k = 0.1667 0.1667 0.3333 (  1424 PWs)   bands (ev):

   -39.4610 -16.7063 -16.2866 -16.2481 -16.0313  -3.1728  -1.7735  -1.4459
     1.2770   1.7469   2.3542  10.2153  10.9742  11.2897  11.5173  12.0761
    13.4248  13.8515  14.0755  14.0911

          k = 0.1667 0.1667-0.5000 (  1434 PWs)   bands (ev):

   -39.4593 -16.7602 -16.2493 -16.2429 -16.0593  -3.3210  -1.6924  -1.0565
     1.1825   2.0656   2.2879   9.8705  10.1670  11.1274  11.3484  11.9474
    13.5907  13.7012  13.7826  13.9864

          k = 0.1667 0.3333 0.3333 (  1435 PWs)   bands (ev):

   -39.4576 -16.6142 -16.4103 -16.2503 -16.0972  -2.7157  -1.6377  -1.3997
     1.2216   1.6916   2.3002   9.6915  10.7065  10.8184  11.1881  11.2999
    12.9890  13.8207  13.9881  14.6810

          k = 0.1667 0.3333-0.5000 (  1436 PWs)   bands (ev):

   -39.4559 -16.6091 -16.4069 -16.2360 -16.1668  -2.6144  -1.4478  -1.3549
     1.1603   1.9433   2.0775   9.5260   9.8532  10.7651  11.0337  11.1502
    13.1027  13.8428  13.8574  14.8749

          k = 0.1667-0.5000-0.5000 (  1428 PWs)   bands (ev):

   -39.4542 -16.4842 -16.4842 -16.2698 -16.2310  -2.1009  -1.5191  -1.5191
     1.3422   1.8970   1.8970   9.3121   9.7705   9.9792  10.9573  10.9573
    13.1112  13.9812  13.9812  15.2365

          k = 0.3333 0.3333 0.3333 (  1436 PWs)   bands (ev):

   -39.4543 -16.5224 -16.3974 -16.3974 -16.1492  -2.0670  -1.2824  -1.2824
     1.0413   1.0413   1.9405   9.9723  10.6915  10.6915  10.9815  10.9815
    11.4596  14.4494  14.4494  14.8243

          k = 0.3333 0.3333-0.5000 (  1426 PWs)   bands (ev):

   -39.4526 -16.5235 -16.3970 -16.3909 -16.1991  -1.8417  -1.1464  -1.0176
     0.6365   1.2778   1.5377   9.8631  10.1627  10.6936  10.8925  10.9099
    11.3613  14.4895  14.7507  14.9906

          k = 0.3333-0.5000-0.5000 (  1428 PWs)   bands (ev):

   -39.4510 -16.4700 -16.4700 -16.3875 -16.2257  -1.1704  -1.0647  -1.0647
     0.6761   1.0154   1.0154   9.7863   9.9996  10.4072  10.9464  10.9464
    11.0394  14.8686  14.8686  15.3157

          k =-0.5000-0.5000-0.5000 (  1472 PWs)   bands (ev):

   -39.4493 -16.4630 -16.4630 -16.4630 -16.2034  -0.6301  -0.6301  -0.6301
     0.3868   0.3868   0.3868   9.7942   9.7942  10.2644  10.9207  10.9207
    10.9207  15.3562  15.3562  15.3562

     highest occupied level (ev):    15.4735

!    total energy              =    -286.27862091 Ry
     Harris-Foulkes estimate   =    -286.27862091 Ry
     estimated scf accuracy    <          5.8E-09 Ry

     The total energy is the sum of the following terms:

     one-electron contribution =     -41.82682114 Ry
     hartree contribution      =      51.93574660 Ry
     xc contribution           =     -59.28919383 Ry
     ewald contribution        =    -237.09835254 Ry

     convergence has been achieved in   9 iterations

     Forces acting on atoms (Ry/au):

     atom    1 type  1   force =     0.00000000    0.00000000    0.00000000
     atom    2 type  2   force =     0.00000000    0.00000000    0.00000000
     atom    3 type  3   force =     0.00000000    0.00000000    0.00000000
     atom    4 type  3   force =     0.00000000    0.00000000    0.00000000
     atom    5 type  3   force =     0.00000000    0.00000000    0.00000000

     Total force =     0.000000     Total SCF correction =     0.000000


     entering subroutine stress ...

          total   stress  (Ry/bohr**3)                   (kbar)     P= 1191.44
   0.00809926   0.00000000   0.00000000       1191.44      0.00      0.00
   0.00000000   0.00809926   0.00000000          0.00   1191.44      0.00
   0.00000000   0.00000000   0.00809926          0.00      0.00   1191.44


     BFGS Geometry Optimization

     number of scf cycles    =   1
     number of bfgs steps    =   0

     enthalpy new            =    -286.2786209061 Ry

     new trust radius        =       0.5000000000 bohr
     new conv_thr            =       0.0000001000 Ry

     new unit-cell volume =    436.57064 a.u.^3 (    64.69309 Ang^3 )

CELL_PARAMETERS (alat=  6.61400000)
   1.146975088   0.000000000   0.000000000
   0.000000000   1.146975088   0.000000000
   0.000000000   0.000000000   1.146975088

ATOMIC_POSITIONS (crystal)
Sr       0.000000000   0.000000000   0.000000000
Ti       0.500000000   0.500000000   0.500000000
O        0.500000000   0.500000000   0.000000000
O        0.500000000   0.000000000   0.500000000
O        0.000000000   0.500000000   0.500000000


     NEW-OLD atomic charge density approx. for the potential

     Check: negative/imaginary core charge=   -0.000054    0.000000
     extrapolated charge   53.15104, renormalised to   40.00000

     total cpu time spent up to now is       31.5 secs

     per-process dynamical memory:    59.4 Mb

     Self-consistent Calculation

     iteration #  1     ecut=    44.00 Ry     beta=0.80
     Davidson diagonalization with overlap
     ethr =  1.00E-06,  avg # of iterations = 12.9

     total cpu time spent up to now is       36.4 secs

     total energy              =    -252.89159746 Ry
     Harris-Foulkes estimate   =    -269.13470478 Ry
     estimated scf accuracy    <      26.06509912 Ry

     iteration #  2     ecut=    44.00 Ry     beta=0.80
     Davidson diagonalization with overlap
     ethr =  1.00E-02,  avg # of iterations =  6.9

     total cpu time spent up to now is       39.6 secs

     total energy              =    -280.21312651 Ry
     Harris-Foulkes estimate   =    -339.93430172 Ry
     estimated scf accuracy    <     163.50983869 Ry

     iteration #  3     ecut=    44.00 Ry     beta=0.80
     Davidson diagonalization with overlap
     ethr =  1.00E-02,  avg # of iterations =  6.4

     total cpu time spent up to now is       41.9 secs

     total energy              =    -288.46094761 Ry
     Harris-Foulkes estimate   =    -293.87055778 Ry
     estimated scf accuracy    <      20.50512340 Ry

     iteration #  4     ecut=    44.00 Ry     beta=0.80
     Davidson diagonalization with overlap
     ethr =  1.00E-02,  avg # of iterations =  3.1

     total cpu time spent up to now is       43.6 secs

     total energy              =    -287.49441444 Ry
     Harris-Foulkes estimate   =    -289.32499886 Ry
     estimated scf accuracy    <       7.92786644 Ry

     iteration #  5     ecut=    44.00 Ry     beta=0.80
     Davidson diagonalization with overlap
     ethr =  1.00E-02,  avg # of iterations =  3.0

     total cpu time spent up to now is       45.0 secs

     total energy              =    -287.93609662 Ry
     Harris-Foulkes estimate   =    -287.94853324 Ry
     estimated scf accuracy    <       3.77320414 Ry

     iteration #  6     ecut=    44.00 Ry     beta=0.80
     Davidson diagonalization with overlap
     ethr =  9.43E-03,  avg # of iterations =  1.0

     total cpu time spent up to now is       46.5 secs

     total energy              =    -287.83421643 Ry
     Harris-Foulkes estimate   =    -287.95590256 Ry
     estimated scf accuracy    <       3.86067313 Ry

     iteration #  7     ecut=    44.00 Ry     beta=0.80
     Davidson diagonalization with overlap
     ethr =  9.43E-03,  avg # of iterations =  1.0

     total cpu time spent up to now is       47.9 secs

     total energy              =    -287.14779193 Ry
     Harris-Foulkes estimate   =    -287.84601377 Ry
     estimated scf accuracy    <       3.56770654 Ry

     iteration #  8     ecut=    44.00 Ry     beta=0.80
     Davidson diagonalization with overlap
     ethr =  8.92E-03,  avg # of iterations =  1.2

     total cpu time spent up to now is       49.1 secs

     total energy              =    -286.94313302 Ry
     Harris-Foulkes estimate   =    -287.19685783 Ry
     estimated scf accuracy    <       2.33554387 Ry

     iteration #  9     ecut=    44.00 Ry     beta=0.80
     Davidson diagonalization with overlap
     ethr =  5.84E-03,  avg # of iterations =  1.2

     total cpu time spent up to now is       50.8 secs

     total energy              =    -287.00593344 Ry
     Harris-Foulkes estimate   =    -286.99594820 Ry
     estimated scf accuracy    <       1.86230105 Ry

     iteration # 10     ecut=    44.00 Ry     beta=0.80
     Davidson diagonalization with overlap
     ethr =  4.66E-03,  avg # of iterations =  1.0

     total cpu time spent up to now is       51.9 secs

     total energy              =    -286.97639419 Ry
     Harris-Foulkes estimate   =    -287.01406500 Ry
     estimated scf accuracy    <       1.98642826 Ry

     iteration # 11     ecut=    44.00 Ry     beta=0.80
     Davidson diagonalization with overlap
     ethr =  4.66E-03,  avg # of iterations =  1.8

     total cpu time spent up to now is       53.1 secs

     total energy              =    -287.54297502 Ry
     Harris-Foulkes estimate   =    -287.05846946 Ry
     estimated scf accuracy    <       3.21506722 Ry

     iteration # 12     ecut=    44.00 Ry     beta=0.80
     Davidson diagonalization with overlap
     ethr =  4.66E-03,  avg # of iterations =  3.1

     total cpu time spent up to now is       54.4 secs

     total energy              =    -287.70010503 Ry
     Harris-Foulkes estimate   =    -287.73073462 Ry
     estimated scf accuracy    <       9.71110965 Ry

     iteration # 13     ecut=    44.00 Ry     beta=0.80
     Davidson diagonalization with overlap
     ethr =  4.66E-03,  avg # of iterations =  1.1

     total cpu time spent up to now is       55.5 secs

     total energy              =    -287.66889259 Ry
     Harris-Foulkes estimate   =    -287.71253841 Ry
     estimated scf accuracy    <       9.91770536 Ry

     iteration # 14     ecut=    44.00 Ry     beta=0.80
     Davidson diagonalization with overlap
     ethr =  4.66E-03,  avg # of iterations =  1.1

     total cpu time spent up to now is       56.8 secs

     total energy              =    -287.47079072 Ry
     Harris-Foulkes estimate   =    -287.70342639 Ry
     estimated scf accuracy    <      10.77866227 Ry

     iteration # 15     ecut=    44.00 Ry     beta=0.80
     Davidson diagonalization with overlap
     ethr =  4.66E-03,  avg # of iterations =  3.5

     total cpu time spent up to now is       58.4 secs

     total energy              =    -287.03496564 Ry
     Harris-Foulkes estimate   =    -288.16743258 Ry
     estimated scf accuracy    <      16.16894499 Ry

     iteration # 16     ecut=    44.00 Ry     beta=0.80
     Davidson diagonalization with overlap
     ethr =  4.66E-03,  avg # of iterations =  2.8

     total cpu time spent up to now is       59.9 secs

     total energy              =    -285.95000250 Ry
     Harris-Foulkes estimate   =    -287.16892881 Ry
     estimated scf accuracy    <       8.50091811 Ry

     iteration # 17     ecut=    44.00 Ry     beta=0.80
     Davidson diagonalization with overlap
     ethr =  4.66E-03,  avg # of iterations =  3.3

     total cpu time spent up to now is       61.3 secs

     total energy              =    -286.40665153 Ry
     Harris-Foulkes estimate   =    -286.51870616 Ry
     estimated scf accuracy    <       0.55622481 Ry

     iteration # 18     ecut=    44.00 Ry     beta=0.80
     Davidson diagonalization with overlap
     ethr =  1.39E-03,  avg # of iterations =  1.1

     total cpu time spent up to now is       62.9 secs

     total energy              =    -286.31174671 Ry
     Harris-Foulkes estimate   =    -286.42575267 Ry
     estimated scf accuracy    <       0.21401822 Ry

     iteration # 19     ecut=    44.00 Ry     beta=0.80
     Davidson diagonalization with overlap
     ethr =  5.35E-04,  avg # of iterations =  3.2

     total cpu time spent up to now is       64.4 secs

     total energy              =    -286.44900298 Ry
     Harris-Foulkes estimate   =    -286.43681268 Ry
     estimated scf accuracy    <       0.20397670 Ry

     iteration # 20     ecut=    44.00 Ry     beta=0.80
     Davidson diagonalization with overlap
     ethr =  5.10E-04,  avg # of iterations =  1.0

     total cpu time spent up to now is       65.6 secs

     total energy              =    -286.48007799 Ry
     Harris-Foulkes estimate   =    -286.44969367 Ry
     estimated scf accuracy    <       0.23809711 Ry

     iteration # 21     ecut=    44.00 Ry     beta=0.80
     Davidson diagonalization with overlap
     ethr =  5.10E-04,  avg # of iterations =  1.6

     total cpu time spent up to now is       67.0 secs

     total energy              =    -286.49581518 Ry
     Harris-Foulkes estimate   =    -286.48475296 Ry
     estimated scf accuracy    <       0.32758239 Ry

     iteration # 22     ecut=    44.00 Ry     beta=0.80
     Davidson diagonalization with overlap
     ethr =  5.10E-04,  avg # of iterations =  1.0

     total cpu time spent up to now is       68.1 secs

     total energy              =    -286.46579713 Ry
     Harris-Foulkes estimate   =    -286.49774761 Ry
     estimated scf accuracy    <       0.35740912 Ry

     iteration # 23     ecut=    44.00 Ry     beta=0.80
     Davidson diagonalization with overlap
     ethr =  5.10E-04,  avg # of iterations =  1.0

     total cpu time spent up to now is       69.3 secs

     total energy              =    -286.45470521 Ry
     Harris-Foulkes estimate   =    -286.46764019 Ry
     estimated scf accuracy    <       0.29280793 Ry

     iteration # 24     ecut=    44.00 Ry     beta=0.80
     Davidson diagonalization with overlap
     ethr =  5.10E-04,  avg # of iterations =  1.5

     total cpu time spent up to now is       70.5 secs

     total energy              =    -286.50753805 Ry
     Harris-Foulkes estimate   =    -286.50018975 Ry
     estimated scf accuracy    <       0.27396793 Ry

     iteration # 25     ecut=    44.00 Ry     beta=0.80
     Davidson diagonalization with overlap
     ethr =  5.10E-04,  avg # of iterations =  1.0

     total cpu time spent up to now is       71.6 secs

     total energy              =    -286.28760277 Ry
     Harris-Foulkes estimate   =    -286.50773494 Ry
     estimated scf accuracy    <       0.28731184 Ry

     iteration # 26     ecut=    44.00 Ry     beta=0.80
     Davidson diagonalization with overlap
     ethr =  5.10E-04,  avg # of iterations =  4.7

     total cpu time spent up to now is       73.6 secs

     total energy              =    -286.38076438 Ry
     Harris-Foulkes estimate   =    -286.65281868 Ry
     estimated scf accuracy    <       1.06202335 Ry

     iteration # 27     ecut=    44.00 Ry     beta=0.80
     Davidson diagonalization with overlap
     ethr =  5.10E-04,  avg # of iterations =  3.3

     total cpu time spent up to now is       75.2 secs

     total energy              =    -286.51575582 Ry
     Harris-Foulkes estimate   =    -286.51538064 Ry
     estimated scf accuracy    <       0.00803775 Ry

     iteration # 28     ecut=    44.00 Ry     beta=0.80
     Davidson diagonalization with overlap
     ethr =  2.01E-05,  avg # of iterations =  1.5

     total cpu time spent up to now is       76.3 secs

     total energy              =    -286.52178117 Ry
     Harris-Foulkes estimate   =    -286.51603029 Ry
     estimated scf accuracy    <       0.00914507 Ry

     iteration # 29     ecut=    44.00 Ry     beta=0.80
     Davidson diagonalization with overlap
     ethr =  2.01E-05,  avg # of iterations =  3.5

     total cpu time spent up to now is       78.1 secs

     total energy              =    -286.56853988 Ry
     Harris-Foulkes estimate   =    -286.55709512 Ry
     estimated scf accuracy    <       0.07423676 Ry

     iteration # 30     ecut=    44.00 Ry     beta=0.80
     Davidson diagonalization with overlap
     ethr =  2.01E-05,  avg # of iterations =  3.0

     total cpu time spent up to now is       79.8 secs

     total energy              =    -286.53381826 Ry
     Harris-Foulkes estimate   =    -286.57110358 Ry
     estimated scf accuracy    <       0.16826174 Ry

     iteration # 31     ecut=    44.00 Ry     beta=0.80
     Davidson diagonalization with overlap
     ethr =  2.01E-05,  avg # of iterations =  3.6

     total cpu time spent up to now is       81.6 secs

     total energy              =    -286.57790528 Ry
     Harris-Foulkes estimate   =    -286.56779476 Ry
     estimated scf accuracy    <       0.00710714 Ry

     iteration # 32     ecut=    44.00 Ry     beta=0.80
     Davidson diagonalization with overlap
     ethr =  1.78E-05,  avg # of iterations =  4.0

     total cpu time spent up to now is       84.0 secs

     total energy              =    -286.50087070 Ry
     Harris-Foulkes estimate   =    -286.60314310 Ry
     estimated scf accuracy    <       0.25407571 Ry

     iteration # 33     ecut=    44.00 Ry     beta=0.80
     Davidson diagonalization with overlap
     ethr =  1.78E-05,  avg # of iterations =  4.1

     total cpu time spent up to now is       85.8 secs

     total energy              =    -286.57291824 Ry
     Harris-Foulkes estimate   =    -286.57415454 Ry
     estimated scf accuracy    <       0.03678582 Ry

     iteration # 34     ecut=    44.00 Ry     beta=0.80
     Davidson diagonalization with overlap
     ethr =  1.78E-05,  avg # of iterations =  1.0

     total cpu time spent up to now is       86.9 secs

     total energy              =    -286.56331047 Ry
     Harris-Foulkes estimate   =    -286.57294560 Ry
     estimated scf accuracy    <       0.03324770 Ry

     iteration # 35     ecut=    44.00 Ry     beta=0.80
     Davidson diagonalization with overlap
     ethr =  1.78E-05,  avg # of iterations =  3.0

     total cpu time spent up to now is       88.4 secs

     total energy              =    -286.56642555 Ry
     Harris-Foulkes estimate   =    -286.56645114 Ry
     estimated scf accuracy    <       0.00186310 Ry

     iteration # 36     ecut=    44.00 Ry     beta=0.80
     Davidson diagonalization with overlap
     ethr =  4.66E-06,  avg # of iterations =  1.0

     total cpu time spent up to now is       89.7 secs

     total energy              =    -286.56590086 Ry
     Harris-Foulkes estimate   =    -286.56643018 Ry
     estimated scf accuracy    <       0.00181246 Ry

     iteration # 37     ecut=    44.00 Ry     beta=0.80
     Davidson diagonalization with overlap
     ethr =  4.53E-06,  avg # of iterations =  2.8

     total cpu time spent up to now is       91.3 secs

     total energy              =    -286.56604257 Ry
     Harris-Foulkes estimate   =    -286.56607558 Ry
     estimated scf accuracy    <       0.00011639 Ry

     iteration # 38     ecut=    44.00 Ry     beta=0.80
     Davidson diagonalization with overlap
     ethr =  2.91E-07,  avg # of iterations =  3.3

     total cpu time spent up to now is       92.6 secs

     total energy              =    -286.56887629 Ry
     Harris-Foulkes estimate   =    -286.56889730 Ry
     estimated scf accuracy    <       0.00004283 Ry

     iteration # 39     ecut=    44.00 Ry     beta=0.80
     Davidson diagonalization with overlap
     ethr =  1.07E-07,  avg # of iterations =  3.4

     total cpu time spent up to now is       94.2 secs

     total energy              =    -286.56889027 Ry
     Harris-Foulkes estimate   =    -286.56889165 Ry
     estimated scf accuracy    <       0.00001281 Ry

     iteration # 40     ecut=    44.00 Ry     beta=0.80
     Davidson diagonalization with overlap
     ethr =  3.20E-08,  avg # of iterations =  1.2

     total cpu time spent up to now is       95.3 secs

     total energy              =    -286.56888859 Ry
     Harris-Foulkes estimate   =    -286.56889040 Ry
     estimated scf accuracy    <       0.00000872 Ry

     iteration # 41     ecut=    44.00 Ry     beta=0.80
     Davidson diagonalization with overlap
     ethr =  2.18E-08,  avg # of iterations =  2.5

     total cpu time spent up to now is       96.6 secs

     total energy              =    -286.56888928 Ry
     Harris-Foulkes estimate   =    -286.56888933 Ry
     estimated scf accuracy    <       0.00000074 Ry

     iteration # 42     ecut=    44.00 Ry     beta=0.80
     Davidson diagonalization with overlap
     ethr =  1.84E-09,  avg # of iterations =  1.4

     total cpu time spent up to now is       98.0 secs

     total energy              =    -286.56888916 Ry
     Harris-Foulkes estimate   =    -286.56888930 Ry
     estimated scf accuracy    <       0.00000055 Ry

     iteration # 43     ecut=    44.00 Ry     beta=0.80
     Davidson diagonalization with overlap
     ethr =  1.38E-09,  avg # of iterations =  2.6

     total cpu time spent up to now is       99.5 secs

     End of self-consistent calculation

          k = 0.0000 0.0000 0.0000 (  1365 PWs)   bands (ev):

   -47.6483 -24.0787 -23.9074 -23.9074 -23.9074  -8.2507  -7.3150  -7.3150
    -6.0704  -6.0704  -6.0704   6.0123   6.0123   6.0123   7.7174   7.7174
     7.7174   8.3869   8.3869   8.3869

          k = 0.0000 0.0000 0.1453 (  1414 PWs)   bands (ev):

   -47.6483 -24.0852 -23.9091 -23.9069 -23.9069  -8.2648  -7.3306  -7.3071
    -6.0619  -6.0619  -5.9128   5.7008   6.0093   6.0093   7.4085   7.4085
     7.5106   7.6909   8.2533   8.2533

          k = 0.0000 0.0000 0.2906 (  1426 PWs)   bands (ev):

   -47.6479 -24.0995 -23.9105 -23.9058 -23.9058  -8.3633  -7.2911  -7.2132
    -6.0443  -6.0443  -5.6629   5.0562   6.0282   6.0282   6.7523   6.8688
     6.8688   7.1557   8.1039   8.1039

          k = 0.0000 0.0000-0.4359 (  1422 PWs)   bands (ev):

   -47.6478 -24.1074 -23.9104 -23.9053 -23.9053  -8.4303  -7.2830  -7.1086
    -6.0352  -6.0352  -5.5595   4.7180   6.0676   6.0676   6.4097   6.6084
     6.6084   6.9951   8.0476   8.0476

          k = 0.0000 0.1453 0.1453 (  1418 PWs)   bands (ev):

   -47.6481 -24.0864 -23.9189 -23.9064 -23.9035  -8.2355  -7.3803  -7.2908
    -6.0527  -5.9651  -5.8763   5.5296   5.8622   6.0113   6.7559   7.1939
     7.5340   7.6874   7.9826   8.0396

          k = 0.0000 0.1453 0.2906 (  1414 PWs)   bands (ev):

   -47.6477 -24.0916 -23.9242 -23.9081 -23.9053  -8.2573  -7.3488  -7.2444
    -6.0343  -5.9344  -5.6929   5.0097   5.6764   6.0332   6.0393   6.7457
     7.0286   7.6320   7.8067   7.8751

          k = 0.0000 0.1453-0.4359 (  1430 PWs)   bands (ev):

   -47.6476 -24.0957 -23.9185 -23.9174 -23.9048  -8.2996  -7.2664  -7.2349
    -6.0250  -5.9278  -5.6079   4.6987   5.5156   5.8358   6.0893   6.4993
     6.8659   7.6159   7.7279   7.7730

          k = 0.0000 0.2906 0.2906 (  1424 PWs)   bands (ev):

   -47.6474 -24.0757 -23.9419 -23.9227 -23.9043  -8.0473  -7.4857  -7.2409
    -6.0143  -5.7750  -5.7223   4.7918   5.1730   5.2663   6.0821   6.4757
     7.0996   7.3524   7.3912   8.3550

          k = 0.0000 0.2906-0.4359 (  1430 PWs)   bands (ev):

   -47.6473 -24.0681 -23.9414 -23.9389 -23.9038  -7.9691  -7.4408  -7.3177
    -6.0044  -5.7579  -5.6747   4.6155   4.7600   5.1748   6.1488   6.2922
     7.1377   7.2346   7.3037   8.4766

          k = 0.0000-0.4359-0.4359 (  1452 PWs)   bands (ev):

   -47.6472 -24.0500 -23.9534 -23.9534 -23.9033  -7.6312  -7.5299  -7.5299
    -5.9943  -5.6860  -5.6860   4.4599   4.4864   4.9138   6.1920   6.1920
     7.0157   7.2707   7.2707   8.6898

          k = 0.1453 0.1453 0.1453 (  1436 PWs)   bands (ev):

   -47.6479 -24.0848 -23.9184 -23.9184 -23.9010  -8.1831  -7.3466  -7.3466
    -5.9946  -5.9946  -5.8148   5.3611   5.8654   5.8654   6.6941   6.6941
     7.0204   7.9189   7.9189  11.3309

          k = 0.1453 0.1453 0.2906 (  1424 PWs)   bands (ev):

   -47.6476 -24.0842 -23.9276 -23.9173 -23.9080  -8.1502  -7.3411  -7.2736
    -6.0591  -5.8916  -5.7115   4.9598   5.5606   5.8750   6.0016   6.1748
     6.9097   7.7308   7.8177   7.9616

          k = 0.1453 0.1453-0.4359 (  1434 PWs)   bands (ev):

   -47.6475 -24.0855 -23.9250 -23.9170 -23.9167  -8.1701  -7.2845  -7.2336
    -6.0951  -5.8401  -5.6714   4.6843   5.3983   5.7352   5.8789   5.9862
     6.9849   7.5991   7.7721   7.8881

          k = 0.1453 0.2906 0.2906 (  1435 PWs)   bands (ev):

   -47.6473 -24.0691 -23.9413 -23.9271 -23.9147  -7.9345  -7.4155  -7.2290
    -6.0719  -5.8656  -5.7280   4.7879   5.2624   5.2731   5.7691   6.0427
     6.4525   7.7308   7.8124   8.3695

          k = 0.1453 0.2906-0.4359 (  1436 PWs)   bands (ev):

   -47.6472 -24.0618 -23.9414 -23.9408 -23.9158  -7.8446  -7.3910  -7.2449
    -6.0971  -5.7948  -5.7733   4.6131   4.8941   5.1821   5.8090   5.8568
     6.4539   7.7399   7.7632   8.4906

          k = 0.1453-0.4359-0.4359 (  1428 PWs)   bands (ev):

   -47.6470 -24.0468 -23.9527 -23.9527 -23.9153  -7.4997  -7.4462  -7.4462
    -6.0657  -5.8023  -5.8023   4.4616   4.6770   4.9187   5.8208   5.8208
     6.3343   7.7799   7.7799   8.7107

          k = 0.2906 0.2906 0.2906 (  1436 PWs)   bands (ev):

   -47.6470 -24.0553 -23.9401 -23.9401 -23.9320  -7.6890  -7.2438  -7.2438
    -6.0780  -6.0780  -5.8146   4.7344   5.2915   5.2915   5.3558   5.5782
     5.5782   8.2024   8.2024   8.4832

          k = 0.2906 0.2906-0.4359 (  1426 PWs)   bands (ev):

   -47.6469 -24.0481 -23.9476 -23.9398 -23.9395  -7.5407  -7.2859  -7.1293
    -6.2127  -5.9798  -5.9411   4.5589   5.1024   5.1476   5.3159   5.3963
     5.6173   8.2688   8.3728   8.5797

          k = 0.2906-0.4359-0.4359 (  1428 PWs)   bands (ev):

   -47.6467 -24.0405 -23.9515 -23.9515 -23.9390  -7.2321  -7.2321  -7.2217
    -6.2040  -6.0810  -6.0810   4.4082   4.9270   5.0622   5.2801   5.4060
     5.4060   8.4753   8.4753   8.7497

          k =-0.4359-0.4359-0.4359 (  1472 PWs)   bands (ev):

   -47.6466 -24.0374 -23.9509 -23.9509 -23.9509  -7.0742  -7.0742  -7.0742
    -6.2712  -6.2712  -6.2712   4.2722   4.9302   4.9302   5.2560   5.2560
     5.2560   8.7677   8.7677   8.7677

     highest occupied level (ev):    11.3309

!    total energy              =    -286.56888922 Ry
     Harris-Foulkes estimate   =    -286.56888923 Ry
     estimated scf accuracy    <       0.00000001 Ry

     The total energy is the sum of the following terms:

     one-electron contribution =     -85.10079733 Ry
     hartree contribution      =      62.89376859 Ry
     xc contribution           =     -57.64563753 Ry
     ewald contribution        =    -206.71622295 Ry

     convergence has been achieved in  43 iterations

     Forces acting on atoms (Ry/au):

     atom    1 type  1   force =     0.00000000    0.00000000    0.00000000
     atom    2 type  2   force =     0.00000000    0.00000000    0.00000000
     atom    3 type  3   force =     0.00000000    0.00000000    0.00000000
     atom    4 type  3   force =     0.00000000    0.00000000    0.00000000
     atom    5 type  3   force =     0.00000000    0.00000000    0.00000000

     Total force =     0.000000     Total SCF correction =     0.000000


     entering subroutine stress ...

          total   stress  (Ry/bohr**3)                   (kbar)     P= -150.65
  -0.00102409   0.00000000   0.00000000       -150.65      0.00      0.00
   0.00000000  -0.00102409   0.00000000          0.00   -150.65      0.00
   0.00000000   0.00000000  -0.00102409          0.00      0.00   -150.65


     number of scf cycles    =   2
     number of bfgs steps    =   1

     enthalpy old            =    -286.2786209061 Ry
     enthalpy new            =    -286.5688892197 Ry

     CASE: enthalpy_new < enthalpy_old

     new trust radius        =       0.0763700614 bohr
     new conv_thr            =       0.0000000010 Ry

     new unit-cell volume =    413.06995 a.u.^3 (    61.21065 Ang^3 )

CELL_PARAMETERS (alat=  6.61400000)
   1.126013708   0.000000000   0.000000000
   0.000000000   1.126013708   0.000000000
   0.000000000   0.000000000   1.126013708

ATOMIC_POSITIONS (crystal)
Sr       0.000000000   0.000000000   0.000000000
Ti       0.500000000   0.500000000   0.500000000
O        0.500000000   0.500000000   0.000000000
O        0.500000000   0.000000000   0.500000000
O        0.000000000   0.500000000   0.500000000


     NEW-OLD atomic charge density approx. for the potential

     Check: negative/imaginary core charge=   -0.000036    0.000000
     extrapolated charge   37.78159, renormalised to   40.00000

     total cpu time spent up to now is      111.0 secs

     per-process dynamical memory:    59.8 Mb

     Self-consistent Calculation

     iteration #  1     ecut=    44.00 Ry     beta=0.80
     Davidson diagonalization with overlap
     ethr =  1.00E-06,  avg # of iterations =  9.2

     total cpu time spent up to now is      113.9 secs

     total energy              =    -285.32975147 Ry
     Harris-Foulkes estimate   =    -290.22806509 Ry
     estimated scf accuracy    <       1.04433668 Ry

     iteration #  2     ecut=    44.00 Ry     beta=0.80
     Davidson diagonalization with overlap
     ethr =  2.61E-03,  avg # of iterations =  4.0

     total cpu time spent up to now is      115.9 secs

     total energy              =    -286.57264506 Ry
     Harris-Foulkes estimate   =    -288.09144054 Ry
     estimated scf accuracy    <       3.31806047 Ry

     iteration #  3     ecut=    44.00 Ry     beta=0.80
     Davidson diagonalization with overlap
     ethr =  2.61E-03,  avg # of iterations =  3.0

     total cpu time spent up to now is      117.3 secs

     total energy              =    -286.66479963 Ry
     Harris-Foulkes estimate   =    -286.80716798 Ry
     estimated scf accuracy    <       0.61998178 Ry

     iteration #  4     ecut=    44.00 Ry     beta=0.80
     Davidson diagonalization with overlap
     ethr =  1.55E-03,  avg # of iterations =  1.3

     total cpu time spent up to now is      118.6 secs

     total energy              =    -286.60792944 Ry
     Harris-Foulkes estimate   =    -286.67969087 Ry
     estimated scf accuracy    <       0.35241752 Ry

     iteration #  5     ecut=    44.00 Ry     beta=0.80
     Davidson diagonalization with overlap
     ethr =  8.81E-04,  avg # of iterations =  1.9

     total cpu time spent up to now is      120.1 secs

     total energy              =    -286.60086652 Ry
     Harris-Foulkes estimate   =    -286.62380695 Ry
     estimated scf accuracy    <       0.13802656 Ry

     iteration #  6     ecut=    44.00 Ry     beta=0.80
     Davidson diagonalization with overlap
     ethr =  3.45E-04,  avg # of iterations =  1.4

     total cpu time spent up to now is      121.5 secs

     total energy              =    -286.59440783 Ry
     Harris-Foulkes estimate   =    -286.60426022 Ry
     estimated scf accuracy    <       0.08188557 Ry

     iteration #  7     ecut=    44.00 Ry     beta=0.80
     Davidson diagonalization with overlap
     ethr =  2.05E-04,  avg # of iterations =  2.1

     total cpu time spent up to now is      122.7 secs

     total energy              =    -286.58993201 Ry
     Harris-Foulkes estimate   =    -286.59739889 Ry
     estimated scf accuracy    <       0.04514194 Ry

     iteration #  8     ecut=    44.00 Ry     beta=0.80
     Davidson diagonalization with overlap
     ethr =  1.13E-04,  avg # of iterations =  1.9

     total cpu time spent up to now is      124.0 secs

     total energy              =    -286.58855583 Ry
     Harris-Foulkes estimate   =    -286.59131529 Ry
     estimated scf accuracy    <       0.02381019 Ry

     iteration #  9     ecut=    44.00 Ry     beta=0.80
     Davidson diagonalization with overlap
     ethr =  5.95E-05,  avg # of iterations =  2.0

     total cpu time spent up to now is      125.4 secs

     total energy              =    -286.58656337 Ry
     Harris-Foulkes estimate   =    -286.58946861 Ry
     estimated scf accuracy    <       0.01280656 Ry

     iteration # 10     ecut=    44.00 Ry     beta=0.80
     Davidson diagonalization with overlap
     ethr =  3.20E-05,  avg # of iterations =  2.1

     total cpu time spent up to now is      126.7 secs

     total energy              =    -286.58561458 Ry
     Harris-Foulkes estimate   =    -286.58725664 Ry
     estimated scf accuracy    <       0.00585350 Ry

     iteration # 11     ecut=    44.00 Ry     beta=0.80
     Davidson diagonalization with overlap
     ethr =  1.46E-05,  avg # of iterations =  2.9

     total cpu time spent up to now is      128.2 secs

     total energy              =    -286.58647476 Ry
     Harris-Foulkes estimate   =    -286.58650980 Ry
     estimated scf accuracy    <       0.00031150 Ry

     iteration # 12     ecut=    44.00 Ry     beta=0.80
     Davidson diagonalization with overlap
     ethr =  7.79E-07,  avg # of iterations =  2.7

     total cpu time spent up to now is      129.5 secs

     total energy              =    -286.58648828 Ry
     Harris-Foulkes estimate   =    -286.58650536 Ry
     estimated scf accuracy    <       0.00016441 Ry

     iteration # 13     ecut=    44.00 Ry     beta=0.80
     Davidson diagonalization with overlap
     ethr =  4.11E-07,  avg # of iterations =  2.0

     total cpu time spent up to now is      130.7 secs

     total energy              =    -286.58648984 Ry
     Harris-Foulkes estimate   =    -286.58649402 Ry
     estimated scf accuracy    <       0.00008264 Ry

     iteration # 14     ecut=    44.00 Ry     beta=0.80
     Davidson diagonalization with overlap
     ethr =  2.07E-07,  avg # of iterations =  1.3

     total cpu time spent up to now is      131.8 secs

     total energy              =    -286.58649034 Ry
     Harris-Foulkes estimate   =    -286.58649220 Ry
     estimated scf accuracy    <       0.00006470 Ry

     iteration # 15     ecut=    44.00 Ry     beta=0.80
     Davidson diagonalization with overlap
     ethr =  1.62E-07,  avg # of iterations =  1.0

     total cpu time spent up to now is      133.0 secs

     total energy              =    -286.58649393 Ry
     Harris-Foulkes estimate   =    -286.58649088 Ry
     estimated scf accuracy    <       0.00005236 Ry

     iteration # 16     ecut=    44.00 Ry     beta=0.80
     Davidson diagonalization with overlap
     ethr =  1.31E-07,  avg # of iterations =  1.0

     total cpu time spent up to now is      134.3 secs

     total energy              =    -286.58648718 Ry
     Harris-Foulkes estimate   =    -286.58649451 Ry
     estimated scf accuracy    <       0.00005729 Ry

     iteration # 17     ecut=    44.00 Ry     beta=0.80
     Davidson diagonalization with overlap
     ethr =  1.31E-07,  avg # of iterations =  1.1

     total cpu time spent up to now is      136.2 secs

     total energy              =    -286.58647433 Ry
     Harris-Foulkes estimate   =    -286.58648771 Ry
     estimated scf accuracy    <       0.00003635 Ry

     iteration # 18     ecut=    44.00 Ry     beta=0.80
     Davidson diagonalization with overlap
     ethr =  9.09E-08,  avg # of iterations =  2.9

     total cpu time spent up to now is      137.8 secs

     total energy              =    -286.58648289 Ry
     Harris-Foulkes estimate   =    -286.58648320 Ry
     estimated scf accuracy    <       0.00000426 Ry

     iteration # 19     ecut=    44.00 Ry     beta=0.80
     Davidson diagonalization with overlap
     ethr =  1.07E-08,  avg # of iterations =  1.1

     total cpu time spent up to now is      139.0 secs

     total energy              =    -286.58648217 Ry
     Harris-Foulkes estimate   =    -286.58648293 Ry
     estimated scf accuracy    <       0.00000342 Ry

     iteration # 20     ecut=    44.00 Ry     beta=0.80
     Davidson diagonalization with overlap
     ethr =  8.55E-09,  avg # of iterations =  2.5

     total cpu time spent up to now is      140.3 secs

     total energy              =    -286.58648190 Ry
     Harris-Foulkes estimate   =    -286.58648245 Ry
     estimated scf accuracy    <       0.00000099 Ry

     iteration # 21     ecut=    44.00 Ry     beta=0.80
     Davidson diagonalization with overlap
     ethr =  2.47E-09,  avg # of iterations =  2.9

     total cpu time spent up to now is      142.1 secs

     total energy              =    -286.58648210 Ry
     Harris-Foulkes estimate   =    -286.58648212 Ry
     estimated scf accuracy    <       0.00000016 Ry

     iteration # 22     ecut=    44.00 Ry     beta=0.80
     Davidson diagonalization with overlap
     ethr =  4.09E-10,  avg # of iterations =  2.5

     total cpu time spent up to now is      143.5 secs

     total energy              =    -286.60621777 Ry
     Harris-Foulkes estimate   =    -286.60622381 Ry
     estimated scf accuracy    <       0.00164402 Ry

     iteration # 23     ecut=    44.00 Ry     beta=0.80
     Davidson diagonalization with overlap
     ethr =  4.09E-10,  avg # of iterations =  3.0

     total cpu time spent up to now is      145.0 secs

     total energy              =    -286.60623678 Ry
     Harris-Foulkes estimate   =    -286.60621780 Ry
     estimated scf accuracy    <       0.00161244 Ry

     iteration # 24     ecut=    44.00 Ry     beta=0.80
     Davidson diagonalization with overlap
     ethr =  4.09E-10,  avg # of iterations =  3.5

     total cpu time spent up to now is      146.6 secs

     total energy              =    -286.60622989 Ry
     Harris-Foulkes estimate   =    -286.60623698 Ry
     estimated scf accuracy    <       0.00170743 Ry

     iteration # 25     ecut=    44.00 Ry     beta=0.80
     Davidson diagonalization with overlap
     ethr =  4.09E-10,  avg # of iterations =  2.9

     total cpu time spent up to now is      148.0 secs

     total energy              =    -286.60629739 Ry
     Harris-Foulkes estimate   =    -286.60622992 Ry
     estimated scf accuracy    <       0.00167246 Ry

     iteration # 26     ecut=    44.00 Ry     beta=0.80
     Davidson diagonalization with overlap
     ethr =  4.09E-10,  avg # of iterations =  4.2

     total cpu time spent up to now is      150.2 secs

     total energy              =    -286.60657150 Ry
     Harris-Foulkes estimate   =    -286.60629989 Ry
     estimated scf accuracy    <       0.00202150 Ry

     iteration # 27     ecut=    44.00 Ry     beta=0.80
     Davidson diagonalization with overlap
     ethr =  4.09E-10,  avg # of iterations =  5.3

     total cpu time spent up to now is      153.1 secs

     total energy              =    -286.60511519 Ry
     Harris-Foulkes estimate   =    -286.60660315 Ry
     estimated scf accuracy    <       0.00352171 Ry

     iteration # 28     ecut=    44.00 Ry     beta=0.80
     Davidson diagonalization with overlap
     ethr =  4.09E-10,  avg # of iterations =  7.0

     total cpu time spent up to now is      156.1 secs

     total energy              =    -286.60580675 Ry
     Harris-Foulkes estimate   =    -286.60594189 Ry
     estimated scf accuracy    <       0.00023129 Ry

     iteration # 29     ecut=    44.00 Ry     beta=0.80
     Davidson diagonalization with overlap
     ethr =  4.09E-10,  avg # of iterations =  6.0

     total cpu time spent up to now is      158.7 secs

     total energy              =    -286.60588105 Ry
     Harris-Foulkes estimate   =    -286.60593852 Ry
     estimated scf accuracy    <       0.00020972 Ry

     iteration # 30     ecut=    44.00 Ry     beta=0.80
     Davidson diagonalization with overlap
     ethr =  4.09E-10,  avg # of iterations =  5.2

     total cpu time spent up to now is      161.5 secs

     total energy              =    -286.60589446 Ry
     Harris-Foulkes estimate   =    -286.60589949 Ry
     estimated scf accuracy    <       0.00001147 Ry

     iteration # 31     ecut=    44.00 Ry     beta=0.80
     Davidson diagonalization with overlap
     ethr =  4.09E-10,  avg # of iterations =  4.3

     total cpu time spent up to now is      163.7 secs

     total energy              =    -286.60589751 Ry
     Harris-Foulkes estimate   =    -286.60589753 Ry
     estimated scf accuracy    <       0.00000134 Ry

     iteration # 32     ecut=    44.00 Ry     beta=0.80
     Davidson diagonalization with overlap
     ethr =  4.09E-10,  avg # of iterations =  1.0

     total cpu time spent up to now is      164.8 secs

     total energy              =    -286.60589752 Ry
     Harris-Foulkes estimate   =    -286.60589751 Ry
     estimated scf accuracy    <       0.00000127 Ry

     iteration # 33     ecut=    44.00 Ry     beta=0.80
     Davidson diagonalization with overlap
     ethr =  4.09E-10,  avg # of iterations =  1.0

     total cpu time spent up to now is      166.0 secs

     total energy              =    -286.60589751 Ry
     Harris-Foulkes estimate   =    -286.60589752 Ry
     estimated scf accuracy    <       0.00000127 Ry

     iteration # 34     ecut=    44.00 Ry     beta=0.80
     Davidson diagonalization with overlap
     ethr =  4.09E-10,  avg # of iterations =  1.0

     total cpu time spent up to now is      167.1 secs

     total energy              =    -286.60589746 Ry
     Harris-Foulkes estimate   =    -286.60589751 Ry
     estimated scf accuracy    <       0.00000123 Ry

     iteration # 35     ecut=    44.00 Ry     beta=0.80
     Davidson diagonalization with overlap
     ethr =  4.09E-10,  avg # of iterations =  1.0

     total cpu time spent up to now is      168.2 secs

     total energy              =    -286.60589726 Ry
     Harris-Foulkes estimate   =    -286.60589746 Ry
     estimated scf accuracy    <       0.00000103 Ry

     iteration # 36     ecut=    44.00 Ry     beta=0.80
     Davidson diagonalization with overlap
     ethr =  4.09E-10,  avg # of iterations =  2.9

     total cpu time spent up to now is      169.6 secs

     total energy              =    -286.60589720 Ry
     Harris-Foulkes estimate   =    -286.60589731 Ry
     estimated scf accuracy    <       0.00000022 Ry

     iteration # 37     ecut=    44.00 Ry     beta=0.80
     Davidson diagonalization with overlap
     ethr =  4.09E-10,  avg # of iterations =  3.0

     total cpu time spent up to now is      171.1 secs

     total energy              =    -286.60589727 Ry
     Harris-Foulkes estimate   =    -286.60589728 Ry
     estimated scf accuracy    <       0.00000007 Ry

     iteration # 38     ecut=    44.00 Ry     beta=0.80
     Davidson diagonalization with overlap
     ethr =  1.68E-10,  avg # of iterations =  1.3

     total cpu time spent up to now is      172.3 secs

     total energy              =    -286.60589727 Ry
     Harris-Foulkes estimate   =    -286.60589727 Ry
     estimated scf accuracy    <       0.00000003 Ry

     iteration # 39     ecut=    44.00 Ry     beta=0.80
     Davidson diagonalization with overlap
     ethr =  6.75E-11,  avg # of iterations =  2.0

     total cpu time spent up to now is      173.4 secs

     total energy              =    -286.60589727 Ry
     Harris-Foulkes estimate   =    -286.60589727 Ry
     estimated scf accuracy    <       0.00000002 Ry

     iteration # 40     ecut=    44.00 Ry     beta=0.80
     Davidson diagonalization with overlap
     ethr =  4.66E-11,  avg # of iterations =  1.0

     total cpu time spent up to now is      174.5 secs

     total energy              =    -286.60589727 Ry
     Harris-Foulkes estimate   =    -286.60589727 Ry
     estimated scf accuracy    <       0.00000001 Ry

     iteration # 41     ecut=    44.00 Ry     beta=0.80
     Davidson diagonalization with overlap
     ethr =  3.73E-11,  avg # of iterations =  1.0

     total cpu time spent up to now is      175.8 secs

     total energy              =    -286.60589726 Ry
     Harris-Foulkes estimate   =    -286.60589727 Ry
     estimated scf accuracy    <       0.00000001 Ry

     iteration # 42     ecut=    44.00 Ry     beta=0.80
     Davidson diagonalization with overlap
     ethr =  3.67E-11,  avg # of iterations =  2.9

     total cpu time spent up to now is      177.2 secs

     End of self-consistent calculation

          k = 0.0000 0.0000 0.0000 (  1365 PWs)   bands (ev):

   -46.8286 -23.1469 -23.1166 -23.1166 -23.1166  -7.6962  -6.7062  -6.7062
    -5.1586  -5.1586  -5.1586   6.7019   6.7019   6.7019   8.3888   8.3888
     8.3888   9.1615   9.1615   9.1615

          k = 0.0000 0.0000 0.1480 (  1414 PWs)   bands (ev):

   -46.8285 -23.1893 -23.1159 -23.1159 -23.0843  -7.7122  -6.7083  -6.6967
    -5.1478  -5.1478  -4.9876   6.3596   6.6885   6.6885   8.0522   8.0522
     8.1612   8.4189   9.0154   9.0154

          k = 0.0000 0.0000 0.2960 (  1426 PWs)   bands (ev):

   -46.8280 -23.2382 -23.1145 -23.1145 -23.0550  -7.8262  -6.6776  -6.5499
    -5.1255  -5.1255  -4.7090   5.6414   6.6822   6.6822   7.4227   7.4814
     7.4814   7.7692   8.8538   8.8538

          k = 0.0000 0.0000-0.4440 (  1422 PWs)   bands (ev):

   -46.8278 -23.2588 -23.1138 -23.1138 -23.0442  -7.9027  -6.6680  -6.4200
    -5.1142  -5.1142  -4.5916   5.2623   6.7056   6.7056   7.0597   7.2132
     7.2132   7.5937   8.7933   8.7933

          k = 0.0000 0.1480 0.1480 (  1418 PWs)   bands (ev):

   -46.8282 -23.1980 -23.1314 -23.1152 -23.0697  -7.6787  -6.7563  -6.6716
    -5.1362  -5.0513  -4.9412   6.1650   6.5233   6.6790   7.3714   7.8145
     8.2409   8.3692   8.7059   8.7863

          k = 0.0000 0.1480 0.2960 (  1414 PWs)   bands (ev):

   -46.8278 -23.2271 -23.1332 -23.1138 -23.0579  -7.7066  -6.7089  -6.6041
    -5.1128  -5.0133  -4.7431   5.5912   6.2723   6.6488   6.6798   7.3392
     7.6860   8.3241   8.5400   8.5745

          k = 0.0000 0.1480-0.4440 (  1430 PWs)   bands (ev):

   -46.8276 -23.2436 -23.1294 -23.1131 -23.0547  -7.7561  -6.6429  -6.5533
    -5.1010  -5.0039  -4.6495   5.2449   6.0625   6.4728   6.7122   7.0877
     7.5120   8.3155   8.4548   8.4573

          k = 0.0000 0.2960 0.2960 (  1424 PWs)   bands (ev):

   -46.8274 -23.2065 -23.1609 -23.1124 -23.0714  -7.4741  -6.8388  -6.5965
    -5.0872  -4.8471  -4.7771   5.3464   5.7330   5.8285   6.6871   7.0390
     7.7626   8.0474   8.1217   9.0856

          k = 0.0000 0.2960-0.4440 (  1430 PWs)   bands (ev):

   -46.8272 -23.2055 -23.1603 -23.1118 -23.0834  -7.3899  -6.7761  -6.6793
    -5.0744  -4.8246  -4.7317   5.1793   5.2498   5.7361   6.7275   6.8499
     7.8197   7.9697   7.9921   9.2153

          k = 0.0000-0.4440-0.4440 (  1452 PWs)   bands (ev):

   -46.8270 -23.1757 -23.1757 -23.1111 -23.1085  -7.0444  -6.8738  -6.8738
    -5.0611  -4.7474  -4.7474   4.9554   5.0312   5.4249   6.7359   6.7359
     7.7725   7.9711   7.9711   9.4453

          k = 0.1480 0.1480 0.1480 (  1436 PWs)   bands (ev):

   -46.8280 -23.1992 -23.1307 -23.1307 -23.0631  -7.6182  -6.7203  -6.7203
    -5.0828  -5.0828  -4.8682   5.9698   6.5202   6.5202   7.2923   7.2923
     7.7333   8.6366   8.6366   8.6493

          k = 0.1480 0.1480 0.2960 (  1424 PWs)   bands (ev):

   -46.8276 -23.2167 -23.1350 -23.1292 -23.0610  -7.5847  -6.6852  -6.6431
    -5.1513  -4.9677  -4.7601   5.5353   6.1393   6.5011   6.6156   6.7685
     7.5818   8.4373   8.5158   8.6492

          k = 0.1480 0.1480-0.4440 (  1434 PWs)   bands (ev):

   -46.8274 -23.2304 -23.1288 -23.1284 -23.0631  -7.6101  -6.6064  -6.6012
    -5.1892  -4.9025  -4.7242   5.2330   5.9339   6.3536   6.4483   6.6255
     7.6648   8.2957   8.4629   8.5665

          k = 0.1480 0.2960 0.2960 (  1435 PWs)   bands (ev):

   -46.8272 -23.1976 -23.1601 -23.1293 -23.0741  -7.3432  -6.7630  -6.5790
    -5.1659  -4.9505  -4.7802   5.3526   5.8264   5.8353   6.3636   6.6133
     7.1268   8.4173   8.5158   9.0986

          k = 0.1480 0.2960-0.4440 (  1436 PWs)   bands (ev):

   -46.8270 -23.1981 -23.1595 -23.1272 -23.0858  -7.2469  -6.7221  -6.5965
    -5.1928  -4.8621  -4.8459   5.1809   5.4012   5.7453   6.3764   6.4427
     7.1321   8.4361   8.4548   9.2292

          k = 0.1480-0.4440-0.4440 (  1428 PWs)   bands (ev):

   -46.8268 -23.1748 -23.1748 -23.1265 -23.1043  -6.8897  -6.7827  -6.7827
    -5.1516  -4.8820  -4.8820   5.0389   5.1743   5.4298   6.3851   6.3851
     7.0264   8.4816   8.4816   9.4673

          k = 0.2960 0.2960 0.2960 (  1436 PWs)   bands (ev):

   -46.8268 -23.1794 -23.1585 -23.1585 -23.0839  -7.0629  -6.5793  -6.5793
    -5.1891  -5.1891  -4.8838   5.3302   5.8532   5.8532   5.9479   6.1475
     6.1475   8.9226   8.9226   9.2199

          k = 0.2960 0.2960-0.4440 (  1426 PWs)   bands (ev):

   -46.8266 -23.1821 -23.1581 -23.1577 -23.0919  -6.9023  -6.6088  -6.4595
    -5.3362  -5.0833  -5.0323   5.1514   5.6399   5.7147   5.8746   5.9683
     6.2016   8.9896   9.1078   9.3238

          k = 0.2960-0.4440-0.4440 (  1428 PWs)   bands (ev):

   -46.8264 -23.1731 -23.1731 -23.1571 -23.0960  -6.5605  -6.5512  -6.5512
    -5.3252  -5.1992  -5.1992   5.0108   5.4387   5.6143   5.8476   5.9815
     5.9815   9.2145   9.2145   9.5102

          k =-0.4440-0.4440-0.4440 (  1472 PWs)   bands (ev):

   -46.8262 -23.1723 -23.1723 -23.1723 -23.0919  -6.3842  -6.3842  -6.3842
    -5.4087  -5.4087  -5.4087   4.8842   5.4425   5.4425   5.8353   5.8353
     5.8353   9.5310   9.5310   9.5310

     highest occupied level (ev):     9.5310

!    total energy              =    -286.60589726 Ry
     Harris-Foulkes estimate   =    -286.60589726 Ry
     estimated scf accuracy    <          4.9E-10 Ry

     The total energy is the sum of the following terms:

     one-electron contribution =     -79.47636353 Ry
     hartree contribution      =      61.25085907 Ry
     xc contribution           =     -57.81603315 Ry
     ewald contribution        =    -210.56435965 Ry

     convergence has been achieved in  42 iterations

     Forces acting on atoms (Ry/au):

     atom    1 type  1   force =     0.00000000    0.00000000    0.00000000
     atom    2 type  2   force =     0.00000000    0.00000000    0.00000000
     atom    3 type  3   force =     0.00000000    0.00000000    0.00000000
     atom    4 type  3   force =     0.00000000    0.00000000    0.00000000
     atom    5 type  3   force =     0.00000000    0.00000000    0.00000000

     Total force =     0.000000     Total SCF correction =     0.000000


     entering subroutine stress ...

          total   stress  (Ry/bohr**3)                   (kbar)     P=  -74.46
  -0.00050620   0.00000000   0.00000000        -74.46      0.00      0.00
   0.00000000  -0.00050620   0.00000000          0.00    -74.46      0.00
   0.00000000   0.00000000  -0.00050620          0.00      0.00    -74.46


     number of scf cycles    =   3
     number of bfgs steps    =   2

     enthalpy old            =    -286.5688892197 Ry
     enthalpy new            =    -286.6058972642 Ry

     CASE: enthalpy_new < enthalpy_old

     new trust radius        =       0.0688455168 bohr
     new conv_thr            =       0.0000000010 Ry

     new unit-cell volume =    392.43505 a.u.^3 (    58.15287 Ang^3 )

CELL_PARAMETERS (alat=  6.61400000)
   1.106942528   0.000000000   0.000000000
   0.000000000   1.106942528   0.000000000
   0.000000000   0.000000000   1.106942528

ATOMIC_POSITIONS (crystal)
Sr       0.000000000   0.000000000   0.000000000
Ti       0.500000000   0.500000000   0.500000000
O        0.500000000   0.500000000   0.000000000
O        0.500000000   0.000000000   0.500000000
O        0.000000000   0.500000000   0.500000000


     NEW-OLD atomic charge density approx. for the potential

     Check: negative/imaginary core charge=   -0.000023    0.000000
     extrapolated charge   37.94969, renormalised to   40.00000

     total cpu time spent up to now is      188.5 secs

     per-process dynamical memory:    59.8 Mb

     Self-consistent Calculation

     iteration #  1     ecut=    44.00 Ry     beta=0.80
     Davidson diagonalization with overlap
     ethr =  1.00E-06,  avg # of iterations =  8.8

     total cpu time spent up to now is      192.4 secs

     total energy              =    -285.71286082 Ry
     Harris-Foulkes estimate   =    -289.78980658 Ry
     estimated scf accuracy    <       0.72567035 Ry

     iteration #  2     ecut=    44.00 Ry     beta=0.80
     Davidson diagonalization with overlap
     ethr =  1.81E-03,  avg # of iterations =  4.0

     total cpu time spent up to now is      194.5 secs

     total energy              =    -286.57947525 Ry
     Harris-Foulkes estimate   =    -287.65012267 Ry
     estimated scf accuracy    <       2.36021643 Ry

     iteration #  3     ecut=    44.00 Ry     beta=0.80
     Davidson diagonalization with overlap
     ethr =  1.81E-03,  avg # of iterations =  2.9

     total cpu time spent up to now is      196.7 secs

     total energy              =    -286.66501575 Ry
     Harris-Foulkes estimate   =    -286.75802476 Ry
     estimated scf accuracy    <       0.41373844 Ry

     iteration #  4     ecut=    44.00 Ry     beta=0.80
     Davidson diagonalization with overlap
     ethr =  1.03E-03,  avg # of iterations =  1.0

     total cpu time spent up to now is      198.1 secs

     total energy              =    -286.61513684 Ry
     Harris-Foulkes estimate   =    -286.67399812 Ry
     estimated scf accuracy    <       0.23858881 Ry

     iteration #  5     ecut=    44.00 Ry     beta=0.80
     Davidson diagonalization with overlap
     ethr =  5.96E-04,  avg # of iterations =  1.9

     total cpu time spent up to now is      199.4 secs

     total energy              =    -286.61990727 Ry
     Harris-Foulkes estimate   =    -286.62936814 Ry
     estimated scf accuracy    <       0.06772278 Ry

     iteration #  6     ecut=    44.00 Ry     beta=0.80
     Davidson diagonalization with overlap
     ethr =  1.69E-04,  avg # of iterations =  1.4

     total cpu time spent up to now is      201.0 secs

     total energy              =    -286.61538070 Ry
     Harris-Foulkes estimate   =    -286.62128643 Ry
     estimated scf accuracy    <       0.04642340 Ry

     iteration #  7     ecut=    44.00 Ry     beta=0.80
     Davidson diagonalization with overlap
     ethr =  1.16E-04,  avg # of iterations =  1.2

     total cpu time spent up to now is      202.1 secs

     total energy              =    -286.61440879 Ry
     Harris-Foulkes estimate   =    -286.61640777 Ry
     estimated scf accuracy    <       0.02718061 Ry

     iteration #  8     ecut=    44.00 Ry     beta=0.80
     Davidson diagonalization with overlap
     ethr =  6.80E-05,  avg # of iterations =  1.0

     total cpu time spent up to now is      203.2 secs

     total energy              =    -286.61100571 Ry
     Harris-Foulkes estimate   =    -286.61479940 Ry
     estimated scf accuracy    <       0.02206103 Ry

     iteration #  9     ecut=    44.00 Ry     beta=0.80
     Davidson diagonalization with overlap
     ethr =  5.52E-05,  avg # of iterations =  1.6

     total cpu time spent up to now is      204.4 secs

     total energy              =    -286.60692612 Ry
     Harris-Foulkes estimate   =    -286.61175207 Ry
     estimated scf accuracy    <       0.01083792 Ry

     iteration # 10     ecut=    44.00 Ry     beta=0.80
     Davidson diagonalization with overlap
     ethr =  2.71E-05,  avg # of iterations =  3.0

     total cpu time spent up to now is      205.9 secs

     total energy              =    -286.61000130 Ry
     Harris-Foulkes estimate   =    -286.60996678 Ry
     estimated scf accuracy    <       0.00068101 Ry

     iteration # 11     ecut=    44.00 Ry     beta=0.80
     Davidson diagonalization with overlap
     ethr =  1.70E-06,  avg # of iterations =  2.2

     total cpu time spent up to now is      207.2 secs

     total energy              =    -286.61002718 Ry
     Harris-Foulkes estimate   =    -286.61003749 Ry
     estimated scf accuracy    <       0.00077604 Ry

     iteration # 12     ecut=    44.00 Ry     beta=0.80
     Davidson diagonalization with overlap
     ethr =  1.70E-06,  avg # of iterations =  1.0

     total cpu time spent up to now is      208.8 secs

     total energy              =    -286.61004645 Ry
     Harris-Foulkes estimate   =    -286.61003056 Ry
     estimated scf accuracy    <       0.00080109 Ry

     iteration # 13     ecut=    44.00 Ry     beta=0.80
     Davidson diagonalization with overlap
     ethr =  1.70E-06,  avg # of iterations =  1.0

     total cpu time spent up to now is      210.3 secs

     total energy              =    -286.61012105 Ry
     Harris-Foulkes estimate   =    -286.61004872 Ry
     estimated scf accuracy    <       0.00090247 Ry

     iteration # 14     ecut=    44.00 Ry     beta=0.80
     Davidson diagonalization with overlap
     ethr =  1.70E-06,  avg # of iterations =  1.0

     total cpu time spent up to now is      211.8 secs

     total energy              =    -286.60993459 Ry
     Harris-Foulkes estimate   =    -286.61013101 Ry
     estimated scf accuracy    <       0.00129851 Ry

     iteration # 15     ecut=    44.00 Ry     beta=0.80
     Davidson diagonalization with overlap
     ethr =  1.70E-06,  avg # of iterations =  1.2

     total cpu time spent up to now is      213.6 secs

     total energy              =    -286.60948986 Ry
     Harris-Foulkes estimate   =    -286.60995646 Ry
     estimated scf accuracy    <       0.00077693 Ry

     iteration # 16     ecut=    44.00 Ry     beta=0.80
     Davidson diagonalization with overlap
     ethr =  1.70E-06,  avg # of iterations =  3.2

     total cpu time spent up to now is      215.4 secs

     total energy              =    -286.61028295 Ry
     Harris-Foulkes estimate   =    -286.61017094 Ry
     estimated scf accuracy    <       0.00153806 Ry

     iteration # 17     ecut=    44.00 Ry     beta=0.80
     Davidson diagonalization with overlap
     ethr =  1.70E-06,  avg # of iterations =  1.0

     total cpu time spent up to now is      216.7 secs

     total energy              =    -286.60944330 Ry
     Harris-Foulkes estimate   =    -286.61030570 Ry
     estimated scf accuracy    <       0.00199409 Ry

     iteration # 18     ecut=    44.00 Ry     beta=0.80
     Davidson diagonalization with overlap
     ethr =  1.70E-06,  avg # of iterations =  3.5

     total cpu time spent up to now is      218.3 secs

     total energy              =    -286.60987021 Ry
     Harris-Foulkes estimate   =    -286.60988618 Ry
     estimated scf accuracy    <       0.00016331 Ry

     iteration # 19     ecut=    44.00 Ry     beta=0.80
     Davidson diagonalization with overlap
     ethr =  4.08E-07,  avg # of iterations =  2.0

     total cpu time spent up to now is      219.8 secs

     total energy              =    -286.60983400 Ry
     Harris-Foulkes estimate   =    -286.60988490 Ry
     estimated scf accuracy    <       0.00011067 Ry

     iteration # 20     ecut=    44.00 Ry     beta=0.80
     Davidson diagonalization with overlap
     ethr =  2.77E-07,  avg # of iterations =  3.7

     total cpu time spent up to now is      221.5 secs

     total energy              =    -286.60977153 Ry
     Harris-Foulkes estimate   =    -286.60990264 Ry
     estimated scf accuracy    <       0.00020738 Ry

     iteration # 21     ecut=    44.00 Ry     beta=0.80
     Davidson diagonalization with overlap
     ethr =  2.77E-07,  avg # of iterations =  3.9

     total cpu time spent up to now is      223.4 secs

     total energy              =    -286.60984268 Ry
     Harris-Foulkes estimate   =    -286.61003742 Ry
     estimated scf accuracy    <       0.00082654 Ry

     iteration # 22     ecut=    44.00 Ry     beta=0.80
     Davidson diagonalization with overlap
     ethr =  2.77E-07,  avg # of iterations =  3.9

     total cpu time spent up to now is      225.1 secs

     total energy              =    -286.60987306 Ry
     Harris-Foulkes estimate   =    -286.60988994 Ry
     estimated scf accuracy    <       0.00019009 Ry

     iteration # 23     ecut=    44.00 Ry     beta=0.80
     Davidson diagonalization with overlap
     ethr =  2.77E-07,  avg # of iterations =  1.0

     total cpu time spent up to now is      226.5 secs

     total energy              =    -286.60984776 Ry
     Harris-Foulkes estimate   =    -286.60987418 Ry
     estimated scf accuracy    <       0.00013387 Ry

     iteration # 24     ecut=    44.00 Ry     beta=0.80
     Davidson diagonalization with overlap
     ethr =  2.77E-07,  avg # of iterations =  2.1

     total cpu time spent up to now is      227.8 secs

     total energy              =    -286.60985194 Ry
     Harris-Foulkes estimate   =    -286.60985673 Ry
     estimated scf accuracy    <       0.00001905 Ry

     iteration # 25     ecut=    44.00 Ry     beta=0.80
     Davidson diagonalization with overlap
     ethr =  4.76E-08,  avg # of iterations =  2.4

     total cpu time spent up to now is      229.1 secs

     total energy              =    -286.60985252 Ry
     Harris-Foulkes estimate   =    -286.60985342 Ry
     estimated scf accuracy    <       0.00000242 Ry

     iteration # 26     ecut=    44.00 Ry     beta=0.80
     Davidson diagonalization with overlap
     ethr =  6.05E-09,  avg # of iterations =  3.2

     total cpu time spent up to now is      230.7 secs

     total energy              =    -286.60985311 Ry
     Harris-Foulkes estimate   =    -286.60985315 Ry
     estimated scf accuracy    <       0.00000014 Ry

     iteration # 27     ecut=    44.00 Ry     beta=0.80
     Davidson diagonalization with overlap
     ethr =  3.47E-10,  avg # of iterations =  2.0

     total cpu time spent up to now is      231.9 secs

     total energy              =    -286.60985311 Ry
     Harris-Foulkes estimate   =    -286.60985313 Ry
     estimated scf accuracy    <       0.00000003 Ry

     iteration # 28     ecut=    44.00 Ry     beta=0.80
     Davidson diagonalization with overlap
     ethr =  8.07E-11,  avg # of iterations =  3.0

     total cpu time spent up to now is      233.4 secs

     End of self-consistent calculation

          k = 0.0000 0.0000 0.0000 (  1365 PWs)   bands (ev):

   -45.8888 -22.2673 -22.2172 -22.2172 -22.2172  -7.1601  -6.1281  -6.1281
    -4.2993  -4.2993  -4.2993   7.3876   7.3876   7.3876   9.0224   9.0224
     9.0224   9.9140   9.9140   9.9140

          k = 0.0000 0.0000 0.1506 (  1414 PWs)   bands (ev):

   -45.8886 -22.3151 -22.2162 -22.2162 -22.1822  -7.1809  -6.1170  -6.1153
    -4.2858  -4.2858  -4.1112   7.0211   7.3619   7.3619   8.6667   8.6667
     8.7734   9.1279   9.7588   9.7588

          k = 0.0000 0.0000 0.3011 (  1426 PWs)   bands (ev):

   -45.8880 -22.3749 -22.2144 -22.2144 -22.1472  -7.3168  -6.0946  -5.9083
    -4.2585  -4.2585  -3.7997   6.2409   7.3252   7.3252   8.0689   8.0765
     8.0765   8.3452   9.5862   9.5862

          k = 0.0000 0.0000-0.4517 (  1422 PWs)   bands (ev):

   -45.8877 -22.4003 -22.2134 -22.2134 -22.1341  -7.4053  -6.0833  -5.7490
    -4.2447  -4.2447  -3.6666   5.8244   7.3274   7.3274   7.6828   7.8071
     7.8071   8.1549   9.5222   9.5222

          k = 0.0000 0.1506 0.1506 (  1418 PWs)   bands (ev):

   -45.8883 -22.3255 -22.2363 -22.2153 -22.1640  -7.1443  -6.1631  -6.0817
    -4.2715  -4.1871  -4.0542   6.7958   7.1918   7.3392   7.9644   8.4088
     8.9296   9.0142   9.4061   9.5228

          k = 0.0000 0.1506 0.3011 (  1414 PWs)   bands (ev):

   -45.8877 -22.3608 -22.2387 -22.2135 -22.1506  -7.1834  -6.1038  -5.9832
    -4.2426  -4.1410  -3.8382   6.1816   6.8594   7.2612   7.3074   7.9141
     8.3156   8.9871   9.2479   9.2674

          k = 0.0000 0.1506-0.4517 (  1430 PWs)   bands (ev):

   -45.8874 -22.3811 -22.2336 -22.2126 -22.1474  -7.2424  -6.0485  -5.8933
    -4.2280  -4.1281  -3.7350   5.8073   6.5941   7.1092   7.3163   7.6638
     8.1265   8.9945   9.1055   9.1817

          k = 0.0000 0.3011 0.3011 (  1424 PWs)   bands (ev):

   -45.8871 -22.3344 -22.2742 -22.2117 -22.1681  -6.9290  -6.2208  -5.9772
    -4.2105  -3.9647  -3.8769   5.8851   6.3057   6.4116   7.2755   7.5843
     8.3965   8.7128   8.8556   9.7780

          k = 0.0000 0.3011-0.4517 (  1430 PWs)   bands (ev):

   -45.8868 -22.3325 -22.2734 -22.2108 -22.1840  -6.8406  -6.1374  -6.0671
    -4.1943  -3.9356  -3.8328   5.7270   5.7536   6.3198   7.2854   7.3928
     8.4717   8.6516   8.7101   9.9148

          k = 0.0000-0.4517-0.4517 (  1452 PWs)   bands (ev):

   -45.8866 -22.2932 -22.2932 -22.2174 -22.2099  -6.4852  -6.2452  -6.2452
    -4.1773  -3.8518  -3.8518   5.4123   5.6152   5.9585   7.2635   7.2635
     8.5319   8.6422   8.6422  10.1595

          k = 0.1506 0.1506 0.1506 (  1436 PWs)   bands (ev):

   -45.8880 -22.3267 -22.2353 -22.2353 -22.1558  -7.0760  -6.1244  -6.1244
    -4.2214  -4.2214  -3.9681   6.5677   7.1807   7.1807   7.8701   7.8701
     8.4418   9.3026   9.3306   9.3306

          k = 0.1506 0.1506 0.3011 (  1424 PWs)   bands (ev):

   -45.8874 -22.3475 -22.2411 -22.2333 -22.1543  -7.0459  -6.0554  -6.0415
    -4.2960  -4.0918  -3.8531   6.1125   6.7167   7.1154   7.2167   7.3638
     8.2513   9.1172   9.1894   9.2995

          k = 0.1506 0.1506-0.4517 (  1434 PWs)   bands (ev):

   -45.8871 -22.3643 -22.2329 -22.2323 -22.1581  -7.0792  -5.9967  -5.9511
    -4.3369  -4.0101  -3.8223   5.7961   6.4540   6.9643   7.0061   7.2676
     8.3441   8.9632   9.1287   9.2089

          k = 0.1506 0.3011 0.3011 (  1435 PWs)   bands (ev):

   -45.8869 -22.3229 -22.2731 -22.2336 -22.1714  -6.7789  -6.1388  -5.9542
    -4.3129  -4.0829  -3.8767   5.9038   6.3982   6.4182   6.9512   7.1704
     7.8068   9.0743   9.1861   9.7888

          k = 0.1506 0.3011-0.4517 (  1436 PWs)   bands (ev):

   -45.8866 -22.3230 -22.2723 -22.2307 -22.1872  -6.6778  -6.0787  -5.9734
    -4.3425  -3.9739  -3.9650   5.7575   5.8973   6.3304   6.9330   7.0181
     7.8198   9.0990   9.1144   9.9284

          k = 0.1506-0.4517-0.4517 (  1428 PWs)   bands (ev):

   -45.8863 -22.2920 -22.2920 -22.2297 -22.2120  -6.3057  -6.1462  -6.1462
    -4.2899  -4.0073  -4.0073   5.6274   5.6630   5.9636   6.9380   6.9380
     7.7308   9.1503   9.1503  10.1831

          k = 0.3011 0.3011 0.3011 (  1436 PWs)   bands (ev):

   -45.8863 -22.2992 -22.2709 -22.2709 -22.1845  -6.4622  -5.9405  -5.9405
    -4.3529  -4.3529  -3.9996   5.9130   6.4349   6.4349   6.5512   6.7111
     6.7111   9.6057   9.6057   9.9163

          k = 0.3011 0.3011-0.4517 (  1426 PWs)   bands (ev):

   -45.8860 -22.3019 -22.2704 -22.2698 -22.1955  -6.2901  -5.9562  -5.8120
    -4.5170  -4.2377  -4.1720   5.7459   6.1703   6.3066   6.4543   6.5366
     6.7842   9.6722   9.8045  10.0277

          k = 0.3011-0.4517-0.4517 (  1428 PWs)   bands (ev):

   -45.8857 -22.2896 -22.2896 -22.2690 -22.2013  -5.9211  -5.8946  -5.8946
    -4.5035  -4.3695  -4.3695   5.6199   5.9731   6.1634   6.4395   6.5535
     6.5535   9.9145   9.9145  10.2299

          k =-0.4517-0.4517-0.4517 (  1472 PWs)   bands (ev):

   -45.8855 -22.2885 -22.2885 -22.2885 -22.1960  -5.7132  -5.7132  -5.7132
    -4.6051  -4.6051  -4.6051   5.5053   5.9776   5.9776   6.4137   6.4137
     6.4137  10.2531  10.2531  10.2531

[...]
        k(   15) = (   0.1500218   0.3000436  -0.4500655), wk =   0.2222222
        k(   16) = (   0.1500218  -0.4500655  -0.4500655), wk =   0.0555556
        k(   17) = (   0.3000436   0.3000436   0.3000436), wk =   0.0740741
        k(   18) = (   0.3000436   0.3000436  -0.4500655), wk =   0.1111111
        k(   19) = (   0.3000436  -0.4500655  -0.4500655), wk =   0.0555556
        k(   20) = (  -0.4500655  -0.4500655  -0.4500655), wk =   0.0092593

     Dense  grid:    15515 G-vectors     FFT dimensions: (  32,  32,  32)

     Largest allocated arrays     est. size (Mb)     dimensions
        Kohn-Sham Wavefunctions         0.60 Mb     (    1980,   20)
        NL pseudopotentials             2.27 Mb     (    1980,   75)
        Each V/rho on FFT grid          0.50 Mb     (   32768)
        Each G-vector array             0.12 Mb     (   15515)
        G-vector shells                 0.00 Mb     (     202)
     Largest temporary arrays     est. size (Mb)     dimensions
        Auxiliary wavefunctions         2.42 Mb     (    1980,   80)
        Each subspace H/S matrix        0.10 Mb     (      80,   80)
        Each <psi_i|beta_j> matrix      0.02 Mb     (      75,   20)
        Arrays for rho mixing           4.00 Mb     (   32768,    8)

     Check: negative/imaginary core charge=   -0.000015    0.000000

     Initial potential from superposition of free atoms
     Check: negative starting charge=   -0.002543

     starting charge   38.99288, renormalised to   40.00000

     negative rho (up, down):  2.608E-03 0.000E+00
     Starting wfc are   30 randomized atomic wfcs

     total cpu time spent up to now is      348.9 secs

     per-process dynamical memory:    53.9 Mb

     Self-consistent Calculation

     iteration #  1     ecut=    44.00 Ry     beta=0.80
     Davidson diagonalization with overlap
     ethr =  1.00E-06,  avg # of iterations =  6.8

     negative rho (up, down):  3.012E-03 0.000E+00

     total cpu time spent up to now is      352.2 secs

     total energy              =    -286.21281187 Ry
     Harris-Foulkes estimate   =    -286.81183675 Ry
     estimated scf accuracy    <       0.72465182 Ry

     iteration #  2     ecut=    44.00 Ry     beta=0.80
     Davidson diagonalization with overlap
     ethr =  1.81E-03,  avg # of iterations =  4.8

     negative rho (up, down):  2.126E-03 0.000E+00

     total cpu time spent up to now is      354.5 secs

     total energy              =    -284.78779606 Ry
     Harris-Foulkes estimate   =    -287.62684720 Ry
     estimated scf accuracy    <      11.20429110 Ry

     iteration #  3     ecut=    44.00 Ry     beta=0.80
     Davidson diagonalization with overlap
     ethr =  1.81E-03,  avg # of iterations =  4.3

     negative rho (up, down):  2.308E-03 0.000E+00

     total cpu time spent up to now is      356.8 secs

     total energy              =    -286.50486965 Ry
     Harris-Foulkes estimate   =    -286.59090148 Ry
     estimated scf accuracy    <       0.18977989 Ry

     iteration #  4     ecut=    44.00 Ry     beta=0.80
     Davidson diagonalization with overlap
     ethr =  4.74E-04,  avg # of iterations =  2.6

     negative rho (up, down):  2.381E-03 0.000E+00

     total cpu time spent up to now is      358.4 secs

     total energy              =    -286.54230872 Ry
     Harris-Foulkes estimate   =    -286.55583857 Ry
     estimated scf accuracy    <       0.05783191 Ry

     iteration #  5     ecut=    44.00 Ry     beta=0.80
     Davidson diagonalization with overlap
     ethr =  1.45E-04,  avg # of iterations =  2.9

     negative rho (up, down):  2.448E-03 0.000E+00

     total cpu time spent up to now is      360.2 secs

     total energy              =    -286.54719721 Ry
     Harris-Foulkes estimate   =    -286.54907453 Ry
     estimated scf accuracy    <       0.00617943 Ry

     iteration #  6     ecut=    44.00 Ry     beta=0.80
     Davidson diagonalization with overlap
     ethr =  1.54E-05,  avg # of iterations =  3.1

     negative rho (up, down):  2.491E-03 0.000E+00

     total cpu time spent up to now is      361.9 secs

     total energy              =    -286.54770639 Ry
     Harris-Foulkes estimate   =    -286.54796059 Ry
     estimated scf accuracy    <       0.00070055 Ry

     iteration #  7     ecut=    44.00 Ry     beta=0.80
     Davidson diagonalization with overlap
     ethr =  1.75E-06,  avg # of iterations =  3.5

     negative rho (up, down):  2.509E-03 0.000E+00

     total cpu time spent up to now is      364.0 secs

     total energy              =    -286.55125927 Ry
     Harris-Foulkes estimate   =    -286.55128110 Ry
     estimated scf accuracy    <       0.00003253 Ry

     iteration #  8     ecut=    44.00 Ry     beta=0.80
     Davidson diagonalization with overlap
     ethr =  8.13E-08,  avg # of iterations =  4.8

     negative rho (up, down):  2.510E-03 0.000E+00

     total cpu time spent up to now is      366.1 secs

     total energy              =    -286.59236035 Ry
     Harris-Foulkes estimate   =    -286.59240044 Ry
     estimated scf accuracy    <       0.00410937 Ry

     iteration #  9     ecut=    44.00 Ry     beta=0.80
     Davidson diagonalization with overlap
     ethr =  8.13E-08,  avg # of iterations =  1.0

     negative rho (up, down):  2.516E-03 0.000E+00

     total cpu time spent up to now is      367.3 secs

     total energy              =    -286.59208306 Ry
     Harris-Foulkes estimate   =    -286.59236059 Ry
     estimated scf accuracy    <       0.00399133 Ry

     iteration # 10     ecut=    44.00 Ry     beta=0.80
     Davidson diagonalization with overlap
     ethr =  8.13E-08,  avg # of iterations =  3.4

     negative rho (up, down):  2.507E-03 0.000E+00

     total cpu time spent up to now is      369.2 secs

     total energy              =    -286.61409915 Ry
     Harris-Foulkes estimate   =    -286.61377919 Ry
     estimated scf accuracy    <       0.00856437 Ry

     iteration # 11     ecut=    44.00 Ry     beta=0.80
     Davidson diagonalization with overlap
     ethr =  8.13E-08,  avg # of iterations =  3.0

     negative rho (up, down):  2.520E-03 0.000E+00

     total cpu time spent up to now is      371.1 secs

     total energy              =    -286.61374033 Ry
     Harris-Foulkes estimate   =    -286.61410917 Ry
     estimated scf accuracy    <       0.01004760 Ry

     iteration # 12     ecut=    44.00 Ry     beta=0.80
     Davidson diagonalization with overlap
     ethr =  8.13E-08,  avg # of iterations =  3.0

     negative rho (up, down):  2.514E-03 0.000E+00

     total cpu time spent up to now is      373.0 secs

     total energy              =    -286.61437974 Ry
     Harris-Foulkes estimate   =    -286.61375240 Ry
     estimated scf accuracy    <       0.00843920 Ry

     iteration # 13     ecut=    44.00 Ry     beta=0.80
     Davidson diagonalization with overlap
     ethr =  8.13E-08,  avg # of iterations =  3.3

     negative rho (up, down):  2.518E-03 0.000E+00

     total cpu time spent up to now is      375.1 secs

     total energy              =    -286.61425359 Ry
     Harris-Foulkes estimate   =    -286.61441839 Ry
     estimated scf accuracy    <       0.01153632 Ry

     iteration # 14     ecut=    44.00 Ry     beta=0.80
     Davidson diagonalization with overlap
     ethr =  8.13E-08,  avg # of iterations =  2.3

     negative rho (up, down):  2.535E-03 0.000E+00

     total cpu time spent up to now is      376.5 secs

     total energy              =    -286.61311879 Ry
     Harris-Foulkes estimate   =    -286.61425518 Ry
     estimated scf accuracy    <       0.01093949 Ry

     iteration # 15     ecut=    44.00 Ry     beta=0.80
     Davidson diagonalization with overlap
     ethr =  8.13E-08,  avg # of iterations =  3.7

     negative rho (up, down):  2.557E-03 0.000E+00

     total cpu time spent up to now is      378.5 secs

     total energy              =    -286.61218881 Ry
     Harris-Foulkes estimate   =    -286.61323486 Ry
     estimated scf accuracy    <       0.00605546 Ry

     iteration # 16     ecut=    44.00 Ry     beta=0.80
     Davidson diagonalization with overlap
     ethr =  8.13E-08,  avg # of iterations =  4.0

     negative rho (up, down):  2.569E-03 0.000E+00

     total cpu time spent up to now is      380.9 secs

     total energy              =    -286.61206522 Ry
     Harris-Foulkes estimate   =    -286.61236694 Ry
     estimated scf accuracy    <       0.00194383 Ry

     iteration # 17     ecut=    44.00 Ry     beta=0.80
     Davidson diagonalization with overlap
     ethr =  8.13E-08,  avg # of iterations =  3.5

     negative rho (up, down):  2.561E-03 0.000E+00

     total cpu time spent up to now is      382.5 secs

     total energy              =    -286.61226241 Ry
     Harris-Foulkes estimate   =    -286.61211155 Ry
     estimated scf accuracy    <       0.00072209 Ry

     iteration # 18     ecut=    44.00 Ry     beta=0.80
     Davidson diagonalization with overlap
     ethr =  8.13E-08,  avg # of iterations =  3.1

     negative rho (up, down):  2.590E-03 0.000E+00

     total cpu time spent up to now is      384.3 secs

     total energy              =    -286.61170230 Ry
     Harris-Foulkes estimate   =    -286.61228839 Ry
     estimated scf accuracy    <       0.00157874 Ry

     iteration # 19     ecut=    44.00 Ry     beta=0.80
     Davidson diagonalization with overlap
     ethr =  8.13E-08,  avg # of iterations =  4.0

     negative rho (up, down):  2.592E-03 0.000E+00

     total cpu time spent up to now is      386.4 secs

     total energy              =    -286.61196550 Ry
     Harris-Foulkes estimate   =    -286.61196133 Ry
     estimated scf accuracy    <       0.00000168 Ry

     iteration # 20     ecut=    44.00 Ry     beta=0.80
     Davidson diagonalization with overlap
     ethr =  4.20E-09,  avg # of iterations =  3.9

     negative rho (up, down):  2.589E-03 0.000E+00

     total cpu time spent up to now is      388.3 secs

     total energy              =    -286.61195424 Ry
     Harris-Foulkes estimate   =    -286.61197071 Ry
     estimated scf accuracy    <       0.00004985 Ry

     iteration # 21     ecut=    44.00 Ry     beta=0.80
     Davidson diagonalization with overlap
     ethr =  4.20E-09,  avg # of iterations =  3.7

     negative rho (up, down):  2.590E-03 0.000E+00

     total cpu time spent up to now is      390.2 secs

     total energy              =    -286.61196119 Ry
     Harris-Foulkes estimate   =    -286.61196103 Ry
     estimated scf accuracy    <       0.00000019 Ry

     iteration # 22     ecut=    44.00 Ry     beta=0.80
     Davidson diagonalization with overlap
     ethr =  4.76E-10,  avg # of iterations =  3.5

     negative rho (up, down):  2.589E-03 0.000E+00

     total cpu time spent up to now is      391.9 secs

     total energy              =    -286.61196071 Ry
     Harris-Foulkes estimate   =    -286.61196134 Ry
     estimated scf accuracy    <       0.00000180 Ry

     iteration # 23     ecut=    44.00 Ry     beta=0.80
     Davidson diagonalization with overlap
     ethr =  4.76E-10,  avg # of iterations =  3.2

     negative rho (up, down):  2.589E-03 0.000E+00

     total cpu time spent up to now is      394.0 secs

     End of self-consistent calculation

          k = 0.0000 0.0000 0.0000 (  1935 PWs)   bands (ev):

   -46.0915 -22.4541 -22.4108 -22.4108 -22.4108  -7.2772  -6.2532  -6.2532
    -4.4821  -4.4821  -4.4821   7.2362   7.2362   7.2362   8.8832   8.8832
     8.8832   9.7492   9.7492   9.7492

          k = 0.0000 0.0000 0.1500 (  1963 PWs)   bands (ev):

   -46.0912 -22.5016 -22.4099 -22.4099 -22.3755  -7.2966  -6.2437  -6.2424
    -4.4692  -4.4692  -4.2979   6.8757   7.2138   7.2138   8.5326   8.5326
     8.6402   8.9729   9.5958   9.5958

          k = 0.0000 0.0000 0.3000 (  1964 PWs)   bands (ev):

   -46.0906 -22.5594 -22.4082 -22.4082 -22.3416  -7.4271  -6.2207  -6.0478
    -4.4430  -4.4430  -3.9942   6.1090   7.1843   7.1843   7.9277   7.9465
     7.9465   8.2189   9.4258   9.4258

          k = 0.0000 0.0000-0.4501 (  1936 PWs)   bands (ev):

   -46.0903 -22.5838 -22.4073 -22.4073 -22.3289  -7.5128  -6.2098  -5.8953
    -4.4298  -4.4298  -3.8647   5.7010   7.1909   7.1909   7.5460   7.6771
     7.6771   8.0320   9.3626   9.3626

          k = 0.0000 0.1500 0.1500 (  1949 PWs)   bands (ev):

   -46.0909 -22.5117 -22.4290 -22.4091 -22.3581  -7.2606  -6.2913  -6.2094
    -4.4555  -4.3712  -4.2434   6.6571   7.0447   7.1943   7.8349   8.2790
     8.7789   8.8739   9.2529   9.3610

          k = 0.0000 0.1500 0.3000 (  1957 PWs)   bands (ev):

   -46.0903 -22.5460 -22.4313 -22.4074 -22.3448  -7.2968  -6.2343  -6.1185
    -4.4279  -4.3270  -4.0317   6.0515   6.7309   7.1263   7.1700   7.7881
     8.1775   8.8423   9.1002   9.1075

          k = 0.0000 0.1500-0.4501 (  1960 PWs)   bands (ev):

   -46.0900 -22.5655 -22.4265 -22.4065 -22.3415  -7.3535  -6.1771  -6.0368
    -4.4140  -4.3149  -3.9306   5.6840   6.4773   6.9693   7.1841   7.5378
     7.9922   8.8461   8.9635   9.0226

          k = 0.0000 0.3000 0.3000 (  1947 PWs)   bands (ev):

   -46.0897 -22.5211 -22.4652 -22.4057 -22.3612  -7.0470  -6.3545  -6.1116
    -4.3973  -4.1534  -4.0694   5.7677   6.1784   6.2834   7.1464   7.4648
     8.2579   8.5674   8.6940   9.6274

          k = 0.0000 0.3000-0.4501 (  1962 PWs)   bands (ev):

   -46.0895 -22.5197 -22.4644 -22.4049 -22.3760  -6.9594  -6.2758  -6.1998
    -4.3819  -4.1257  -4.0251   5.6218   5.6276   6.1913   7.1634   7.2739
     8.3290   8.5074   8.5467   9.7627

          k = 0.0000-0.4501-0.4501 (  1956 PWs)   bands (ev):

   -46.0892 -22.4832 -22.4832 -22.4068 -22.4040  -6.6064  -6.3812  -6.3812
    -4.3657  -4.0435  -4.0435   5.3116   5.4866   5.8419   7.1484   7.1484
     8.3649   8.4957   8.4957  10.0050

          k = 0.1500 0.1500 0.1500 (  1953 PWs)   bands (ev):

   -46.0906 -22.5129 -22.4281 -22.4281 -22.3502  -7.1939  -6.2533  -6.2533
    -4.4048  -4.4048  -4.1603   6.4366   7.0355   7.0355   7.7437   7.7437
     8.2867   9.1605   9.1794   9.1794

          k = 0.1500 0.1500 0.3000 (  1969 PWs)   bands (ev):

   -46.0900 -22.5334 -22.4335 -22.4262 -22.3484  -7.1627  -6.1920  -6.1717
    -4.4779  -4.2787  -4.0471   5.9856   6.5898   6.9817   7.0851   7.2318
     8.1038   8.9684   9.0424   9.1577

          k = 0.1500 0.1500-0.4501 (  1946 PWs)   bands (ev):

   -46.0897 -22.5497 -22.4259 -22.4253 -22.3516  -7.1940  -6.1277  -6.0935
    -4.5180  -4.2009  -4.0151   5.6727   6.3396   6.8307   6.8840   7.1266
     8.1942   8.8174   8.9834   9.0691

          k = 0.1500 0.3000 0.3000 (  1948 PWs)   bands (ev):

   -46.0895 -22.5102 -22.4642 -22.4265 -22.3644  -6.9012  -6.2738  -6.0898
    -4.4943  -4.2681  -4.0699   5.7837   6.2715   6.2902   6.8226   7.0485
     7.6569   8.9307   9.0400   9.6388

          k = 0.1500 0.3000-0.4501 (  1964 PWs)   bands (ev):

   -46.0892 -22.5108 -22.4634 -22.4238 -22.3789  -6.8009  -6.2182  -6.1086
    -4.5233  -4.1639  -4.1532   5.6311   5.7880   6.2016   6.8110   6.8922
     7.6682   8.9544   8.9706   9.7765

          k = 0.1500-0.4501-0.4501 (  1980 PWs)   bands (ev):

   -46.0889 -22.4822 -22.4822 -22.4229 -22.4017  -6.4324  -6.2840  -6.2840
    -4.4733  -4.1943  -4.1943   5.4979   5.5552   5.8465   6.8168   6.8168
     7.5755   9.0042   9.0042  10.0275

          k = 0.3000 0.3000 0.3000 (  1944 PWs)   bands (ev):

   -46.0889 -22.4881 -22.4621 -22.4621 -22.3764  -6.5925  -6.0790  -6.0790
    -4.5308  -4.5308  -4.1885   5.7859   6.3070   6.3070   6.4173   6.5873
     6.5873   9.4571   9.4571   9.7646

          k = 0.3000 0.3000-0.4501 (  1956 PWs)   bands (ev):

   -46.0886 -22.4912 -22.4617 -22.4611 -22.3864  -6.4228  -6.0977  -5.9527
    -4.6908  -4.4179  -4.3556   5.6158   6.0534   6.1757   6.3268   6.4115
     6.6559   9.5235   9.6527   9.8743

          k = 0.3000-0.4501-0.4501 (  1936 PWs)   bands (ev):

   -46.0883 -22.4800 -22.4800 -22.4603 -22.3915  -6.0601  -6.0371  -6.0371
    -4.6778  -4.5461  -4.5461   5.4861   5.8558   6.0423   6.3089   6.4277
     6.4277   9.7620   9.7620  10.0733

          k =-0.4501-0.4501-0.4501 (  1904 PWs)   bands (ev):

   -46.0880 -22.4789 -22.4789 -22.4789 -22.3864  -5.8593  -5.8593  -5.8593
    -4.7753  -4.7753  -4.7753   5.3690   5.8605   5.8605   6.2868   6.2868
     6.2868  10.0967  10.0967  10.0967

     highest occupied level (ev):    10.0967

!    total energy              =    -286.61196098 Ry
     Harris-Foulkes estimate   =    -286.61196098 Ry
     estimated scf accuracy    <          8.8E-10 Ry

     The total energy is the sum of the following terms:

     one-electron contribution =     -75.36198270 Ry
     hartree contribution      =      60.12310473 Ry
     xc contribution           =     -57.95352588 Ry
     ewald contribution        =    -213.41955713 Ry

     convergence has been achieved in  23 iterations

     Forces acting on atoms (Ry/au):


     negative rho (up, down):  2.589E-03 0.000E+00
     atom    1 type  1   force =     0.00000000    0.00000000    0.00000000
     atom    2 type  2   force =     0.00000000    0.00000000    0.00000000
     atom    3 type  3   force =     0.00000000    0.00000000    0.00000000
     atom    4 type  3   force =     0.00000000    0.00000000    0.00000000
     atom    5 type  3   force =     0.00000000    0.00000000    0.00000000

     Total force =     0.000000     Total SCF correction =     0.000000


     entering subroutine stress ...


     negative rho (up, down):  2.589E-03 0.000E+00
          total   stress  (Ry/bohr**3)                   (kbar)     P=    7.51
   0.00005107   0.00000000   0.00000000          7.51      0.00      0.00
   0.00000000   0.00005107   0.00000000          0.00      7.51      0.00
   0.00000000   0.00000000   0.00005107          0.00      0.00      7.51


     init_run     :      7.53s CPU      7.78s WALL (       2 calls)
     electrons    :    299.86s CPU    306.56s WALL (       8 calls)
     update_pot   :     17.72s CPU     17.85s WALL (       6 calls)
     forces       :     15.54s CPU     15.62s WALL (       8 calls)
     stress       :     46.63s CPU     47.14s WALL (       8 calls)

     Called by init_run:
     wfcinit      :      1.28s CPU      1.31s WALL (       2 calls)
     potinit      :      0.92s CPU      0.95s WALL (       2 calls)

     Called by electrons:
     c_bands      :    224.19s CPU    227.35s WALL (     188 calls)
     sum_band     :     53.32s CPU     55.24s WALL (     188 calls)
     v_of_rho     :      4.56s CPU      4.61s WALL (     195 calls)
     newd         :     14.47s CPU     15.66s WALL (     195 calls)
     mix_rho      :      0.93s CPU      0.98s WALL (     188 calls)

     Called by c_bands:
     init_us_2    :      8.35s CPU      8.40s WALL (    3940 calls)
     cegterg      :    183.02s CPU    184.08s WALL (    1880 calls)

     Called by sum_band:
     sum_band:bec :      0.10s CPU      0.09s WALL (    1880 calls)
     addusdens    :     19.83s CPU     20.95s WALL (     188 calls)

     Called by *egterg:
     h_psi        :    125.40s CPU    126.51s WALL (    7049 calls)
     s_psi        :     14.61s CPU     14.57s WALL (    7049 calls)
     g_psi        :      1.01s CPU      1.11s WALL (    5149 calls)
     cdiaghg      :     10.96s CPU     10.97s WALL (    6959 calls)

     Called by h_psi:
     add_vuspsi   :     14.67s CPU     14.77s WALL (    7049 calls)

     General routines
     calbec       :     21.28s CPU     21.52s WALL (    9329 calls)
     fft          :      1.56s CPU      1.60s WALL (    2736 calls)
     fftw         :    100.83s CPU    101.80s WALL (  241670 calls)

     Parallel routines
     fft_scatter  :      7.76s CPU      7.86s WALL (  244406 calls)

     PWSCF        :  6m28.45s CPU     6m36.39s WALL


   This run was terminated on:  14: 8:13   5Oct2015            

=------------------------------------------------------------------------------=
   JOB DONE.
=------------------------------------------------------------------------------=
